
Linearized model: Predictions were generated on 11-Oct-2025 at 14:38:47 using OpenFAST, compiled on Oct 10 2025 at 17:31:28 as a 64-bit application using double precision at commit v4.1.2-727-g39496902
 linked with  NWTC Subroutine Library; ElastoDyn; InflowWind; AeroDyn

Description from the FAST input file: Three blades, 4 aero-stations, Linearization with continuous-state aerodynamic modules

Simulation information:
   Simulation time:                     1.1000 s
   Rotor Speed:                         1.2671 rad/s
   Azimuth:                             1.3938 rad
   Wind Speed:                         13.0000 m/s
   Number of continuous states:        15
   Number of discrete states:           0
   Number of constraint states:         0
   Number of inputs:                  363
   Number of outputs:                  20
   Jacobians included in this file?    No

Order of continuous states:
   Row/Column Operating Point                                                   Rotating Frame? Derivative Order Description
   ---------- ---------------                                                   --------------- ---------------- -----------
          1    5.881305467368E+000                                                     T               2         ED 1st flapwise bending-mode DOF of blade 1 (internal DOF index = DOF_BF(1,1)), m
          2    4.772498053655E+000                                                     T               2         ED 1st flapwise bending-mode DOF of blade 2 (internal DOF index = DOF_BF(2,1)), m
          3    5.317026351141E+000                                                     T               2         ED 1st flapwise bending-mode DOF of blade 3 (internal DOF index = DOF_BF(3,1)), m
          4   -6.413831119245E+000                                                     T               2         ED First time derivative of 1st flapwise bending-mode DOF of blade 1 (internal DOF index = DOF_BF(1,1)), m/s
          5   -6.960258197777E+000                                                     T               2         ED First time derivative of 1st flapwise bending-mode DOF of blade 2 (internal DOF index = DOF_BF(2,1)), m/s
          6   -5.042737963936E+000                                                     T               2         ED First time derivative of 1st flapwise bending-mode DOF of blade 3 (internal DOF index = DOF_BF(3,1)), m/s
          7    5.094491080642E-001                                                     T               1         AD x4 blade 1, node 2, -
          8    5.648143902638E-001                                                     T               1         AD x4 blade 1, node 3, -
          9    5.181924546727E-001                                                     T               1         AD x4 blade 1, node 4, -
         10    5.614716994386E-001                                                     T               1         AD x4 blade 2, node 2, -
         11    5.788476214296E-001                                                     T               1         AD x4 blade 2, node 3, -
         12    5.194981632663E-001                                                     T               1         AD x4 blade 2, node 4, -
         13    5.113751042956E-001                                                     T               1         AD x4 blade 3, node 2, -
         14    5.721038297350E-001                                                     T               1         AD x4 blade 3, node 3, -
         15    5.194173017367E-001                                                     T               1         AD x4 blade 3, node 4, -

Order of continuous state derivatives:
   Row/Column Operating Point                                                   Rotating Frame? Derivative Order Description
   ---------- ---------------                                                   --------------- ---------------- -----------
          1   -6.413831119245E+000                                                     T               2         First time derivative of ED 1st flapwise bending-mode DOF of blade 1 (internal DOF index = DOF_BF(1,1)), m/s
          2   -6.960258197777E+000                                                     T               2         First time derivative of ED 1st flapwise bending-mode DOF of blade 2 (internal DOF index = DOF_BF(2,1)), m/s
          3   -5.042737963936E+000                                                     T               2         First time derivative of ED 1st flapwise bending-mode DOF of blade 3 (internal DOF index = DOF_BF(3,1)), m/s
          4   -6.287115247358E+000                                                     T               2         First time derivative of ED First time derivative of 1st flapwise bending-mode DOF of blade 1 (internal DOF index = DOF_BF(1,1)), m/s/s
          5   -8.449459248956E-001                                                     T               2         First time derivative of ED First time derivative of 1st flapwise bending-mode DOF of blade 2 (internal DOF index = DOF_BF(2,1)), m/s/s
          6   -3.990950537224E+000                                                     T               2         First time derivative of ED First time derivative of 1st flapwise bending-mode DOF of blade 3 (internal DOF index = DOF_BF(3,1)), m/s/s
          7   -1.154916512948E-003                                                     T               1         First time derivative of AD x4 blade 1, node 2, -/s
          8   -7.834988367452E-002                                                     T               1         First time derivative of AD x4 blade 1, node 3, -/s
          9    2.804848178226E-003                                                     T               1         First time derivative of AD x4 blade 1, node 4, -/s
         10   -2.574450755541E-002                                                     T               1         First time derivative of AD x4 blade 2, node 2, -/s
         11   -6.047963003908E-002                                                     T               1         First time derivative of AD x4 blade 2, node 3, -/s
         12    3.270164844476E-003                                                     T               1         First time derivative of AD x4 blade 2, node 4, -/s
         13   -4.338963266398E-002                                                     T               1         First time derivative of AD x4 blade 3, node 2, -/s
         14   -1.090567117871E-001                                                     T               1         First time derivative of AD x4 blade 3, node 3, -/s
         15    1.645549141980E-003                                                     T               1         First time derivative of AD x4 blade 3, node 4, -/s

Order of inputs:
     Column   Operating Point                                                   Rotating Frame? Derivative Order Description
   ---------- ---------------                                                   --------------- ---------------- -----------
          1    1.300000000000E+001                                                     F               0         IfW Extended input: horizontal wind speed (steady/uniform wind) (hub), m/s
          2    2.000000000000E-001                                                     F               0         IfW Extended input: vertical power-law shear exponent (hub), -
          3    0.000000000000E+000                                                     F               0         IfW Extended input: propagation direction (hub), rad
          4    2.340891651382E+004                                                     F               0         ED Blade 1 X force, node 1, N
          5   -9.831428488688E+002                                                     F               0         ED Blade 1 Y force, node 1, N
          6   -9.561355565601E+003                                                     F               0         ED Blade 1 Z force, node 1, N
          7    9.839407016217E+004                                                     F               0         ED Blade 1 X force, node 2, N
          8    8.571962643808E+002                                                     F               0         ED Blade 1 Y force, node 2, N
          9   -3.622574624372E+004                                                     F               0         ED Blade 1 Z force, node 2, N
         10    1.470039625731E+005                                                     F               0         ED Blade 1 X force, node 3, N
         11    1.236641909471E+004                                                     F               0         ED Blade 1 Y force, node 3, N
         12   -4.269504727922E+004                                                     F               0         ED Blade 1 Z force, node 3, N
         13    1.636652358187E+004                                                     F               0         ED Blade 1 X moment, node 1, Nm
         14    8.971967870621E+003                                                     F               0         ED Blade 1 Y moment, node 1, Nm
         15    3.778904343644E+004                                                     F               0         ED Blade 1 Z moment, node 1, Nm
         16   -9.077767041608E+004                                                     F               0         ED Blade 1 X moment, node 2, Nm
         17   -4.912945836977E+004                                                     F               0         ED Blade 1 Y moment, node 2, Nm
         18   -1.861554638147E+005                                                     F               0         ED Blade 1 Z moment, node 2, Nm
         19   -2.175855969261E+005                                                     F               0         ED Blade 1 X moment, node 3, Nm
         20   -1.337828009262E+005                                                     F               0         ED Blade 1 Y moment, node 3, Nm
         21   -6.278838394820E+005                                                     F               0         ED Blade 1 Z moment, node 3, Nm
         22    2.268444735059E+004                                                     F               0         ED Blade 2 X force, node 1, N
         23    6.644050733303E+003                                                     F               0         ED Blade 2 Y force, node 1, N
         24    5.090391237091E+002                                                     F               0         ED Blade 2 Z force, node 1, N
         25    9.357211991091E+004                                                     F               0         ED Blade 2 X force, node 2, N
         26    2.157963290757E+004                                                     F               0         ED Blade 2 Y force, node 2, N
         27    3.289332876894E+003                                                     F               0         ED Blade 2 Z force, node 2, N
         28    1.382401509957E+005                                                     F               0         ED Blade 2 X force, node 3, N
         29    1.738605789317E+004                                                     F               0         ED Blade 2 Y force, node 3, N
         30    6.918237792980E+003                                                     F               0         ED Blade 2 Z force, node 3, N
         31    1.086745567122E+004                                                     F               0         ED Blade 2 X moment, node 1, Nm
         32   -3.570413617573E+004                                                     F               0         ED Blade 2 Y moment, node 1, Nm
         33   -1.225541585605E+004                                                     F               0         ED Blade 2 Z moment, node 1, Nm
         34   -6.699179466248E+004                                                     F               0         ED Blade 2 X moment, node 2, Nm
         35    1.826654860800E+005                                                     F               0         ED Blade 2 Y moment, node 2, Nm
         36    5.859430340652E+004                                                     F               0         ED Blade 2 Z moment, node 2, Nm
         37   -1.213581205122E+005                                                     F               0         ED Blade 2 X moment, node 3, Nm
         38    5.560455434887E+005                                                     F               0         ED Blade 2 Y moment, node 3, Nm
         39    2.000727898581E+005                                                     F               0         ED Blade 2 Z moment, node 3, Nm
         40    2.505142239043E+004                                                     F               0         ED Blade 3 X force, node 1, N
         41   -6.461801536619E+003                                                     F               0         ED Blade 3 Y force, node 1, N
         42    2.989363367772E+003                                                     F               0         ED Blade 3 Z force, node 1, N
         43    1.024135196523E+005                                                     F               0         ED Blade 3 X force, node 2, N
         44   -2.487708885774E+004                                                     F               0         ED Blade 3 Y force, node 2, N
         45    5.988415617291E+003                                                     F               0         ED Blade 3 Z force, node 2, N
         46    1.472262633767E+005                                                     F               0         ED Blade 3 X force, node 3, N
         47   -3.081255422535E+004                                                     F               0         ED Blade 3 Y force, node 3, N
         48   -6.215971804945E+003                                                     F               0         ED Blade 3 Z force, node 3, N
         49    1.137493980128E+004                                                     F               0         ED Blade 3 X moment, node 1, Nm
         50    3.078651131569E+004                                                     F               0         ED Blade 3 Y moment, node 1, Nm
         51   -2.811088019312E+004                                                     F               0         ED Blade 3 Z moment, node 1, Nm
         52   -6.905157673566E+004                                                     F               0         ED Blade 3 X moment, node 2, Nm
         53   -1.480783954396E+005                                                     F               0         ED Blade 3 Y moment, node 2, Nm
         54    1.540821351285E+005                                                     F               0         ED Blade 3 Z moment, node 2, Nm
         55   -1.288644166675E+005                                                     F               0         ED Blade 3 X moment, node 3, Nm
         56   -4.838560606145E+005                                                     F               0         ED Blade 3 Y moment, node 3, Nm
         57    4.457096889026E+005                                                     F               0         ED Blade 3 Z moment, node 3, Nm
         58    0.000000000000E+000                                                     F               0         ED Platform X force, node 1, N
         59    0.000000000000E+000                                                     F               0         ED Platform Y force, node 1, N
         60    0.000000000000E+000                                                     F               0         ED Platform Z force, node 1, N
         61    0.000000000000E+000                                                     F               0         ED Platform X moment, node 1, Nm
         62    0.000000000000E+000                                                     F               0         ED Platform Y moment, node 1, Nm
         63    0.000000000000E+000                                                     F               0         ED Platform Z moment, node 1, Nm
         64    0.000000000000E+000                                                     F               0         ED Tower X force, node 1, N
         65    0.000000000000E+000                                                     F               0         ED Tower Y force, node 1, N
         66    0.000000000000E+000                                                     F               0         ED Tower Z force, node 1, N
         67    0.000000000000E+000                                                     F               0         ED Tower X force, node 2, N
         68    0.000000000000E+000                                                     F               0         ED Tower Y force, node 2, N
         69    0.000000000000E+000                                                     F               0         ED Tower Z force, node 2, N
         70    0.000000000000E+000                                                     F               0         ED Tower X force, node 3, N
         71    0.000000000000E+000                                                     F               0         ED Tower Y force, node 3, N
         72    0.000000000000E+000                                                     F               0         ED Tower Z force, node 3, N
         73    0.000000000000E+000                                                     F               0         ED Tower X moment, node 1, Nm
         74    0.000000000000E+000                                                     F               0         ED Tower Y moment, node 1, Nm
         75    0.000000000000E+000                                                     F               0         ED Tower Z moment, node 1, Nm
         76    0.000000000000E+000                                                     F               0         ED Tower X moment, node 2, Nm
         77    0.000000000000E+000                                                     F               0         ED Tower Y moment, node 2, Nm
         78    0.000000000000E+000                                                     F               0         ED Tower Z moment, node 2, Nm
         79    0.000000000000E+000                                                     F               0         ED Tower X moment, node 3, Nm
         80    0.000000000000E+000                                                     F               0         ED Tower Y moment, node 3, Nm
         81    0.000000000000E+000                                                     F               0         ED Tower Z moment, node 3, Nm
         82    0.000000000000E+000                                                     F               0         ED Hub X force, node 1, N
         83    0.000000000000E+000                                                     F               0         ED Hub Y force, node 1, N
         84    0.000000000000E+000                                                     F               0         ED Hub Z force, node 1, N
         85    0.000000000000E+000                                                     F               0         ED Hub X moment, node 1, Nm
         86    0.000000000000E+000                                                     F               0         ED Hub Y moment, node 1, Nm
         87    0.000000000000E+000                                                     F               0         ED Hub Z moment, node 1, Nm
         88    0.000000000000E+000                                                     F               0         ED Nacelle X force, node 1, N
         89    0.000000000000E+000                                                     F               0         ED Nacelle Y force, node 1, N
         90    0.000000000000E+000                                                     F               0         ED Nacelle Z force, node 1, N
         91    0.000000000000E+000                                                     F               0         ED Nacelle X moment, node 1, Nm
         92    0.000000000000E+000                                                     F               0         ED Nacelle Y moment, node 1, Nm
         93    0.000000000000E+000                                                     F               0         ED Nacelle Z moment, node 1, Nm
         94    0.000000000000E+000                                                     F               0         ED Tailfin X force, node 1, N
         95    0.000000000000E+000                                                     F               0         ED Tailfin Y force, node 1, N
         96    0.000000000000E+000                                                     F               0         ED Tailfin Z force, node 1, N
         97    0.000000000000E+000                                                     F               0         ED Tailfin X moment, node 1, Nm
         98    0.000000000000E+000                                                     F               0         ED Tailfin Y moment, node 1, Nm
         99    0.000000000000E+000                                                     F               0         ED Tailfin Z moment, node 1, Nm
        100    0.000000000000E+000                                                     T               0         ED Blade 1 pitch command, rad
        101    0.000000000000E+000                                                     T               0         ED Blade 2 pitch command, rad
        102    0.000000000000E+000                                                     T               0         ED Blade 3 pitch command, rad
        103    0.000000000000E+000                                                     T               0         ED Blade 1 pitch moment, Nm
        104    0.000000000000E+000                                                     T               0         ED Blade 2 pitch moment, Nm
        105    0.000000000000E+000                                                     T               0         ED Blade 3 pitch moment, Nm
        106    0.000000000000E+000                                                     F               0         ED Yaw moment, Nm
        107    0.000000000000E+000                                                     F               0         ED Generator torque, Nm
        108    0.000000000000E+000                                                     F               0         ED Extended input: collective blade-pitch command, rad
        109    0.000000000000E+000                                                     F               0         AD Nacelle X translation displacement, node 1, m
        110    0.000000000000E+000                                                     F               0         AD Nacelle Y translation displacement, node 1, m
        111    0.000000000000E+000                                                     F               0         AD Nacelle Z translation displacement, node 1, m
        112    1.000000000000E+000,  0.000000000000E+000,  0.000000000000E+000         F               0         AD Nacelle X orientation angle, node 1, rad
        113    0.000000000000E+000,  1.000000000000E+000,  0.000000000000E+000         F               0         AD Nacelle Y orientation angle, node 1, rad
        114    0.000000000000E+000,  0.000000000000E+000,  1.000000000000E+000         F               0         AD Nacelle Z orientation angle, node 1, rad
        115    0.000000000000E+000                                                     F               0         AD Hub X translation displacement, node 1, m
        116    0.000000000000E+000                                                     F               0         AD Hub Y translation displacement, node 1, m
        117    0.000000000000E+000                                                     F               0         AD Hub Z translation displacement, node 1, m
        118    9.961946980917E-001,  6.938893903907E-018, -8.715574274766E-002         F               0         AD Hub X orientation angle, node 1, rad
        119    8.579441458219E-002,  1.760539961798E-001,  9.806346459592E-001         F               0         AD Hub Y orientation angle, node 1, rad
        120    1.534411680074E-002, -9.843805109962E-001,  1.753840575722E-001         F               0         AD Hub Z orientation angle, node 1, rad
        121    1.262287304512E+000                                                     F               0         AD Hub X rotation velocity, node 1, rad/s
        122    0.000000000000E+000                                                     F               0         AD Hub Y rotation velocity, node 1, rad/s
        123   -1.104358292575E-001                                                     F               0         AD Hub Z rotation velocity, node 1, rad/s
        124    9.959158424523E-001, -4.293807482403E-002, -7.942264464775E-002         F               0         AD Blade root 1 X orientation angle, node 1, rad
        125    8.579441458219E-002,  1.760539961798E-001,  9.806346459592E-001         F               0         AD Blade root 1 Y orientation angle, node 1, rad
        126   -2.812388982583E-002, -9.834435988706E-001,  1.790188109153E-001         F               0         AD Blade root 1 Z orientation angle, node 1, rad
        127    9.916709642922E-001,  1.481851010962E-002, -1.279418240368E-001         F               0         AD Blade root 2 X orientation angle, node 1, rad
        128   -2.960881234302E-002, -9.405255276029E-001, -3.384302737033E-001         F               0         AD Blade root 2 Y orientation angle, node 1, rad
        129   -1.253475839870E-001,  3.393996813278E-001, -9.322530984144E-001         F               0         AD Blade root 2 Z orientation angle, node 1, rad
        130    9.981528176889E-001,  2.811956471441E-002, -5.385390069351E-002         F               0         AD Blade root 3 X orientation angle, node 1, rad
        131   -5.618560223918E-002,  7.644715314231E-001, -6.422043722559E-001         F               0         AD Blade root 3 Y orientation angle, node 1, rad
        132    2.311126653075E-002,  6.440439175428E-001,  7.646393278111E-001         F               0         AD Blade root 3 Z orientation angle, node 1, rad
        133   -1.076149157867E-001                                                     F               0         AD Blade 1 X translation displacement, node 1, m
        134   -1.475165398306E+000                                                     F               0         AD Blade 1 Y translation displacement, node 1, m
        135   -1.230044116000E+000                                                     F               0         AD Blade 1 Z translation displacement, node 1, m
        136   -1.293854952568E+000                                                     F               0         AD Blade 1 X translation displacement, node 2, m
        137   -2.324729752574E+001                                                     F               0         AD Blade 1 Y translation displacement, node 2, m
        138   -2.037903727519E+001                                                     F               0         AD Blade 1 Z translation displacement, node 2, m
        139   -8.374287737349E-001                                                     F               0         AD Blade 1 X translation displacement, node 3, m
        140   -4.356939473989E+001                                                     F               0         AD Blade 1 Y translation displacement, node 3, m
        141   -3.752080863466E+001                                                     F               0         AD Blade 1 Z translation displacement, node 3, m
        142    1.436800985765E+000                                                     F               0         AD Blade 1 X translation displacement, node 4, m
        143   -6.175419917239E+001                                                     F               0         AD Blade 1 Y translation displacement, node 4, m
        144   -5.319769389413E+001                                                     F               0         AD Blade 1 Z translation displacement, node 4, m
        145    9.494236174756E-001, -8.231014525657E-002, -3.030178782967E-001         F               0         AD Blade 1 X orientation angle, node 1, rad
        146    3.127360570843E-001,  1.614426456309E-001,  9.360194606797E-001         F               0         AD Blade 1 Y orientation angle, node 1, rad
        147   -2.812388982583E-002, -9.834435988706E-001,  1.790188109153E-001         F               0         AD Blade 1 Z orientation angle, node 1, rad
        148    9.701689315706E-001, -1.189217769528E-002, -2.421380191645E-001         F               0         AD Blade 1 X orientation angle, node 2, rad
        149    2.406990355729E-001,  1.663890600122E-001,  9.562314860862E-001         F               0         AD Blade 1 Y orientation angle, node 2, rad
        150    2.891744265164E-002, -9.859884668788E-001,  1.642879322792E-001         F               0         AD Blade 1 Z orientation angle, node 2, rad
        151    9.831068750075E-001,  9.395399423267E-002, -1.570780674722E-001         F               0         AD Blade 1 X orientation angle, node 3, rad
        152    1.403674764678E-001,  1.637496513188E-001,  9.764645529885E-001         F               0         AD Blade 1 Y orientation angle, node 3, rad
        153    1.174642237583E-001, -9.820176671836E-001,  1.477953229171E-001         F               0         AD Blade 1 Z orientation angle, node 3, rad