
Linearized model: Predictions were generated on 11-Oct-2025 at 14:38:47 using OpenFAST, compiled on Oct 10 2025 at 17:31:28 as a 64-bit application using double precision at commit v4.1.2-727-g39496902
 linked with  NWTC Subroutine Library; ElastoDyn; InflowWind; AeroDyn

Description from the FAST input file: Three blades, 4 aero-stations, Linearization with continuous-state aerodynamic modules

Simulation information:
   Simulation time:                     1.1000 s
   Rotor Speed:                         1.2671 rad/s
   Azimuth:                             1.3938 rad
   Wind Speed:                         13.0000 m/s
   Number of continuous states:         9
   Number of discrete states:           0
   Number of constraint states:         0
   Number of inputs:                  255
   Number of outputs:                  13
   Jacobians included in this file?    No

Order of continuous states:
   Row/Column Operating Point                                                   Rotating Frame? Derivative Order Description
   ---------- ---------------                                                   --------------- ---------------- -----------
          1    5.094491080642E-001                                                     T               1         x4 blade 1, node 2, -
          2    5.648143902638E-001                                                     T               1         x4 blade 1, node 3, -
          3    5.181924546727E-001                                                     T               1         x4 blade 1, node 4, -
          4    5.614716994386E-001                                                     T               1         x4 blade 2, node 2, -
          5    5.788476214296E-001                                                     T               1         x4 blade 2, node 3, -
          6    5.194981632663E-001                                                     T               1         x4 blade 2, node 4, -
          7    5.113751042956E-001                                                     T               1         x4 blade 3, node 2, -
          8    5.721038297350E-001                                                     T               1         x4 blade 3, node 3, -
          9    5.194173017367E-001                                                     T               1         x4 blade 3, node 4, -

Order of continuous state derivatives:
   Row/Column Operating Point                                                   Rotating Frame? Derivative Order Description
   ---------- ---------------                                                   --------------- ---------------- -----------
          1   -1.154916512948E-003                                                     T               1         First time derivative of x4 blade 1, node 2, -/s
          2   -7.834988367452E-002                                                     T               1         First time derivative of x4 blade 1, node 3, -/s
          3    2.804848178226E-003                                                     T               1         First time derivative of x4 blade 1, node 4, -/s
          4   -2.574450755541E-002                                                     T               1         First time derivative of x4 blade 2, node 2, -/s
          5   -6.047963003908E-002                                                     T               1         First time derivative of x4 blade 2, node 3, -/s
          6    3.270164844476E-003                                                     T               1         First time derivative of x4 blade 2, node 4, -/s
          7   -4.338963266398E-002                                                     T               1         First time derivative of x4 blade 3, node 2, -/s
          8   -1.090567117871E-001                                                     T               1         First time derivative of x4 blade 3, node 3, -/s
          9    1.645549141980E-003                                                     T               1         First time derivative of x4 blade 3, node 4, -/s

Order of inputs:
     Column   Operating Point                                                   Rotating Frame? Derivative Order Description
   ---------- ---------------                                                   --------------- ---------------- -----------
          1    0.000000000000E+000                                                     F               0         Nacelle X translation displacement, node 1, m
          2    0.000000000000E+000                                                     F               0         Nacelle Y translation displacement, node 1, m
          3    0.000000000000E+000                                                     F               0         Nacelle Z translation displacement, node 1, m
          4    1.000000000000E+000,  0.000000000000E+000,  0.000000000000E+000         F               0         Nacelle X orientation angle, node 1, rad
          5    0.000000000000E+000,  1.000000000000E+000,  0.000000000000E+000         F               0         Nacelle Y orientation angle, node 1, rad
          6    0.000000000000E+000,  0.000000000000E+000,  1.000000000000E+000         F               0         Nacelle Z orientation angle, node 1, rad
          7    0.000000000000E+000                                                     F               0         Hub X translation displacement, node 1, m
          8    0.000000000000E+000                                                     F               0         Hub Y translation displacement, node 1, m
          9    0.000000000000E+000                                                     F               0         Hub Z translation displacement, node 1, m
         10    9.961946980917E-001,  6.938893903907E-018, -8.715574274766E-002         F               0         Hub X orientation angle, node 1, rad
         11    8.579441458219E-002,  1.760539961798E-001,  9.806346459592E-001         F               0         Hub Y orientation angle, node 1, rad
         12    1.534411680074E-002, -9.843805109962E-001,  1.753840575722E-001         F               0         Hub Z orientation angle, node 1, rad
         13    1.262287304512E+000                                                     F               0         Hub X rotation velocity, node 1, rad/s
         14    0.000000000000E+000                                                     F               0         Hub Y rotation velocity, node 1, rad/s
         15   -1.104358292575E-001                                                     F               0         Hub Z rotation velocity, node 1, rad/s
         16    9.959158424523E-001, -4.293807482403E-002, -7.942264464775E-002         F               0         Blade root 1 X orientation angle, node 1, rad
         17    8.579441458219E-002,  1.760539961798E-001,  9.806346459592E-001         F               0         Blade root 1 Y orientation angle, node 1, rad
         18   -2.812388982583E-002, -9.834435988706E-001,  1.790188109153E-001         F               0         Blade root 1 Z orientation angle, node 1, rad
         19    9.916709642922E-001,  1.481851010962E-002, -1.279418240368E-001         F               0         Blade root 2 X orientation angle, node 1, rad
         20   -2.960881234302E-002, -9.405255276029E-001, -3.384302737033E-001         F               0         Blade root 2 Y orientation angle, node 1, rad
         21   -1.253475839870E-001,  3.393996813278E-001, -9.322530984144E-001         F               0         Blade root 2 Z orientation angle, node 1, rad
         22    9.981528176889E-001,  2.811956471441E-002, -5.385390069351E-002         F               0         Blade root 3 X orientation angle, node 1, rad
         23   -5.618560223918E-002,  7.644715314231E-001, -6.422043722559E-001         F               0         Blade root 3 Y orientation angle, node 1, rad
         24    2.311126653075E-002,  6.440439175428E-001,  7.646393278111E-001         F               0         Blade root 3 Z orientation angle, node 1, rad
         25   -1.076149157867E-001                                                     F               0         Blade 1 X translation displacement, node 1, m
         26   -1.475165398306E+000                                                     F               0         Blade 1 Y translation displacement, node 1, m
         27   -1.230044116000E+000                                                     F               0         Blade 1 Z translation displacement, node 1, m
         28   -1.293854952568E+000                                                     F               0         Blade 1 X translation displacement, node 2, m
         29   -2.324729752574E+001                                                     F               0         Blade 1 Y translation displacement, node 2, m
         30   -2.037903727519E+001                                                     F               0         Blade 1 Z translation displacement, node 2, m
         31   -8.374287737349E-001                                                     F               0         Blade 1 X translation displacement, node 3, m
         32   -4.356939473989E+001                                                     F               0         Blade 1 Y translation displacement, node 3, m
         33   -3.752080863466E+001                                                     F               0         Blade 1 Z translation displacement, node 3, m
         34    1.436800985765E+000                                                     F               0         Blade 1 X translation displacement, node 4, m
         35   -6.175419917239E+001                                                     F               0         Blade 1 Y translation displacement, node 4, m
         36   -5.319769389413E+001                                                     F               0         Blade 1 Z translation displacement, node 4, m
         37    9.494236174756E-001, -8.231014525657E-002, -3.030178782967E-001         F               0         Blade 1 X orientation angle, node 1, rad
         38    3.127360570843E-001,  1.614426456309E-001,  9.360194606797E-001         F               0         Blade 1 Y orientation angle, node 1, rad
         39   -2.812388982583E-002, -9.834435988706E-001,  1.790188109153E-001         F               0         Blade 1 Z orientation angle, node 1, rad
         40    9.701689315706E-001, -1.189217769528E-002, -2.421380191645E-001         F               0         Blade 1 X orientation angle, node 2, rad
         41    2.406990355729E-001,  1.663890600122E-001,  9.562314860862E-001         F               0         Blade 1 Y orientation angle, node 2, rad
         42    2.891744265164E-002, -9.859884668788E-001,  1.642879322792E-001         F               0         Blade 1 Z orientation angle, node 2, rad
         43    9.831068750075E-001,  9.395399423267E-002, -1.570780674722E-001         F               0         Blade 1 X orientation angle, node 3, rad
         44    1.403674764678E-001,  1.637496513188E-001,  9.764645529885E-001         F               0         Blade 1 Y orientation angle, node 3, rad
         45    1.174642237583E-001, -9.820176671836E-001,  1.477953229171E-001         F               0         Blade 1 Z orientation angle, node 3, rad
         46    9.730658069928E-001,  1.970676305493E-001, -1.196130605371E-001         F               0         Blade 1 X orientation angle, node 4, rad
         47    8.966942652187E-002,  1.544439786413E-001,  9.839240069277E-001         F               0         Blade 1 Y orientation angle, node 4, rad
         48    2.123730896527E-001, -9.681484423636E-001,  1.326132132944E-001         F               0         Blade 1 Z orientation angle, node 4, rad
         49   -1.629111140538E-001                                                     F               0         Blade 1 X translation velocity, node 1, m/s
         50   -3.343009307885E-001                                                     F               0         Blade 1 Y translation velocity, node 1, m/s
         51   -1.862082554336E+000                                                     F               0         Blade 1 Z translation velocity, node 1, m/s
         52   -3.141152145303E+000                                                     F               0         Blade 1 X translation velocity, node 2, m/s
         53   -4.545700392727E+000                                                     F               0         Blade 1 Y translation velocity, node 2, m/s
         54   -2.984783131625E+001                                                     F               0         Blade 1 Z translation velocity, node 2, m/s
         55   -7.444910482288E+000                                                     F               0         Blade 1 X translation velocity, node 3, m/s
         56   -8.973944204838E+000                                                     F               0         Blade 1 Y translation velocity, node 3, m/s
         57   -5.477981640681E+001                                                     F               0         Blade 1 Z translation velocity, node 3, m/s
         58   -1.331738609400E+001                                                     F               0         Blade 1 X translation velocity, node 4, m/s
         59   -1.331421285996E+001                                                     F               0         Blade 1 Y translation velocity, node 4, m/s
         60   -7.661139737224E+001                                                     F               0         Blade 1 Z translation velocity, node 4, m/s
         61    1.262287304512E+000                                                     F               0         Blade 1 X rotation velocity, node 1, rad/s
         62    0.000000000000E+000                                                     F               0         Blade 1 Y rotation velocity, node 1, rad/s
         63   -1.104358292575E-001                                                     F               0         Blade 1 Z rotation velocity, node 1, rad/s
         64    1.245923605237E+000                                                     F               0         Blade 1 X rotation velocity, node 2, rad/s
         65   -1.062449301394E-002                                                     F               0         Blade 1 Y rotation velocity, node 2, rad/s
         66   -1.713724451671E-001                                                     F               0         Blade 1 Z rotation velocity, node 2, rad/s
         67    1.228523578862E+000                                                     F               0         Blade 1 X rotation velocity, node 3, rad/s
         68   -2.762011935540E-002                                                     F               0         Blade 1 Y rotation velocity, node 3, rad/s
         69   -2.674718230542E-001                                                     F               0         Blade 1 Z rotation velocity, node 3, rad/s
         70    1.214408451404E+000                                                     F               0         Blade 1 X rotation velocity, node 4, rad/s
         71   -4.659447708064E-002                                                     F               0         Blade 1 Y rotation velocity, node 4, rad/s
         72   -3.739253451150E-001                                                     F               0         Blade 1 Z rotation velocity, node 4, rad/s
         73   -3.691880051317E-002                                                     F               0         Blade 1 X translation acceleration, node 1, m/s^2
         74    2.368474392267E+000                                                     F               0         Blade 1 Y translation acceleration, node 1, m/s^2
         75   -4.219838208207E-001                                                     F               0         Blade 1 Z translation acceleration, node 1, m/s^2
         76   -1.004459159109E+000                                                     F               0         Blade 1 X translation acceleration, node 2, m/s^2
         77    3.792557315656E+001                                                     F               0         Blade 1 Y translation acceleration, node 2, m/s^2
         78   -5.550327317681E+000                                                     F               0         Blade 1 Z translation acceleration, node 2, m/s^2
         79   -3.511012054107E+000                                                     F               0         Blade 1 X translation acceleration, node 3, m/s^2
         80    6.959567498368E+001                                                     F               0         Blade 1 Y translation acceleration, node 3, m/s^2
         81   -1.073888508976E+001                                                     F               0         Blade 1 Z translation acceleration, node 3, m/s^2
         82   -7.904080192045E+000                                                     F               0         Blade 1 X translation acceleration, node 4, m/s^2
         83    9.743732034037E+001                                                     F               0         Blade 1 Y translation acceleration, node 4, m/s^2
         84   -1.615489519154E+001                                                     F               0         Blade 1 Z translation acceleration, node 4, m/s^2
         85    0.000000000000E+000                                                     F               0         Blade 1 X rotation acceleration, node 1, rad/s^2
         86    0.000000000000E+000                                                     F               0         Blade 1 Y rotation acceleration, node 1, rad/s^2
         87    0.000000000000E+000                                                     F               0         Blade 1 Z rotation acceleration, node 1, rad/s^2
         88   -1.734497190667E-002                                                     F               0         Blade 1 X rotation acceleration, node 2, rad/s^2
         89    6.822685637023E-002                                                     F               0         Blade 1 Y rotation acceleration, node 2, rad/s^2
         90   -7.363259779927E-002                                                     F               0         Blade 1 Z rotation acceleration, node 2, rad/s^2
         91   -3.641770948502E-002                                                     F               0         Blade 1 X rotation acceleration, node 3, rad/s^2
         92    1.746573097061E-001                                                     F               0         Blade 1 Y rotation acceleration, node 3, rad/s^2
         93   -1.900574715930E-001                                                     F               0         Blade 1 Z rotation acceleration, node 3, rad/s^2
         94   -5.246262410476E-002                                                     F               0         Blade 1 X rotation acceleration, node 4, rad/s^2
         95    2.918393891831E-001                                                     F               0         Blade 1 Y rotation acceleration, node 4, rad/s^2
         96   -3.192126959638E-001                                                     F               0         Blade 1 Z rotation acceleration, node 4, rad/s^2
         97   -5.753667999493E-002                                                     F               0         Blade 2 X translation displacement, node 1, m
         98    1.806901231235E+000                                                     F               0         Blade 2 Y translation displacement, node 1, m
         99   -6.576472616692E-001                                                     F               0         Blade 2 Z translation displacement, node 1, m
        100   -4.722248851514E-001                                                     F               0         Blade 2 X translation displacement, node 2, m
        101    2.928337488551E+001                                                     F               0         Blade 2 Y translation displacement, node 2, m
        102   -9.928145410782E+000                                                     F               0         Blade 2 Z translation displacement, node 2, m
        103    3.037685593015E-001                                                     F               0         Blade 2 X translation displacement, node 3, m
        104    5.415022514816E+001                                                     F               0         Blade 2 Y translation displacement, node 3, m
        105   -1.914972308089E+001                                                     F               0         Blade 2 Z translation displacement, node 3, m
        106    2.531210579976E+000                                                     F               0         Blade 2 X translation displacement, node 4, m
        107    7.655670738614E+001                                                     F               0         Blade 2 Y translation displacement, node 4, m
        108   -2.752572288701E+001                                                     F               0         Blade 2 Z translation displacement, node 4, m
        109    9.718568910412E-001,  2.309160331025E-001, -4.660438812009E-002         F               0         Blade 2 X orientation angle, node 1, rad
        110    1.994546728569E-001, -9.118583453425E-001, -3.587926859688E-001         F               0         Blade 2 Y orientation angle, node 1, rad
        111   -1.253475839870E-001,  3.393996813278E-001, -9.322530984144E-001         F               0         Blade 2 Z orientation angle, node 1, rad
        112    9.889435500456E-001,  1.454995402767E-001, -2.864504498904E-002         F               0         Blade 2 X orientation angle, node 2, rad
        113    1.259888844411E-001, -9.262613537176E-001, -3.551995292883E-001         F               0         Blade 2 Y orientation angle, node 2, rad
        114   -7.821416636681E-002,  3.476633262059E-001, -9.343515161817E-001         F               0         Blade 2 Z orientation angle, node 2, rad
        115    9.997013257363E-001,  2.412187713003E-002,  3.923565322448E-003         F               0         Blade 2 X orientation angle, node 3, rad
        116    2.395286498641E-002, -9.352510128419E-001, -3.531738994280E-001         F               0         Blade 2 Y orientation angle, node 3, rad
        117   -4.849698965765E-003,  3.531623961041E-001, -9.355494655003E-001         F               0         Blade 2 Z orientation angle, node 3, rad
        118    9.967920909412E-001, -5.295027442991E-002,  6.001496375809E-002         F               0         Blade 2 X orientation angle, node 4, rad
        119   -2.822814768550E-002, -9.342694995183E-001, -3.554485531665E-001         F               0         Blade 2 Y orientation angle, node 4, rad
        120    7.489124858976E-002,  3.526141952725E-001, -9.327671360940E-001         F               0         Blade 2 Z orientation angle, node 4, rad
        121    5.622282788573E-002                                                     F               0         Blade 2 X translation velocity, node 1, m/s
        122    1.785921172655E+000                                                     F               0         Blade 2 Y translation velocity, node 1, m/s
        123    6.426298633430E-001                                                     F               0         Blade 2 Z translation velocity, node 1, m/s
        124    3.889396081636E-001                                                     F               0         Blade 2 X translation velocity, node 2, m/s
        125    2.825672396397E+001                                                     F               0         Blade 2 Y translation velocity, node 2, m/s
        126    1.105068794191E+001                                                     F               0         Blade 2 Z translation velocity, node 2, m/s
        127   -1.143141524226E+000                                                     F               0         Blade 2 X translation velocity, node 3, m/s
        128    5.231371073989E+001                                                     F               0         Blade 2 Y translation velocity, node 3, m/s
        129    1.994810589581E+001                                                     F               0         Blade 2 Z translation velocity, node 3, m/s
        130   -4.792505967742E+000                                                     F               0         Blade 2 X translation velocity, node 4, m/s
        131    7.382930465697E+001                                                     F               0         Blade 2 Y translation velocity, node 4, m/s
        132    2.770114300662E+001                                                     F               0         Blade 2 Z translation velocity, node 4, m/s
        133    1.262287304512E+000                                                     F               0         Blade 2 X rotation velocity, node 1, rad/s
        134    0.000000000000E+000                                                     F               0         Blade 2 Y rotation velocity, node 1, rad/s
        135   -1.104358292575E-001                                                     F               0         Blade 2 Z rotation velocity, node 1, rad/s
        136    1.252410176730E+000                                                     F               0         Blade 2 X rotation velocity, node 2, rad/s
        137    6.457218404807E-002                                                     F               0         Blade 2 Y rotation velocity, node 2, rad/s
        138   -8.559938427050E-002                                                     F               0         Blade 2 Z rotation velocity, node 2, rad/s
        139    1.245890646507E+000                                                     F               0         Blade 2 X rotation velocity, node 3, rad/s
        140    1.658432634738E-001                                                     F               0         Blade 2 Y rotation velocity, node 3, rad/s
        141   -4.785364815344E-002                                                     F               0         Blade 2 Z rotation velocity, node 3, rad/s
        142    1.244227858517E+000                                                     F               0         Blade 2 X rotation velocity, node 4, rad/s
        143    2.776809216925E-001                                                     F               0         Blade 2 Y rotation velocity, node 4, rad/s
        144   -6.914023407741E-003                                                     F               0         Blade 2 Z rotation velocity, node 4, rad/s
        145    1.972296856906E-001                                                     F               0         Blade 2 X translation acceleration, node 1, m/s^2
        146   -8.173925326187E-001                                                     F               0         Blade 2 Y translation acceleration, node 1, m/s^2
        147    2.254345623101E+000                                                     F               0         Blade 2 Z translation acceleration, node 1, m/s^2
        148    3.043406817849E+000                                                     F               0         Blade 2 X translation acceleration, node 2, m/s^2
        149   -1.397258783618E+001                                                     F               0         Blade 2 Y translation acceleration, node 2, m/s^2
        150    3.553559294744E+001                                                     F               0         Blade 2 Z translation acceleration, node 2, m/s^2
        151    5.452582169214E+000                                                     F               0         Blade 2 X translation acceleration, node 3, m/s^2
        152   -2.489966451972E+001                                                     F               0         Blade 2 Y translation acceleration, node 3, m/s^2
        153    6.576272722024E+001                                                     F               0         Blade 2 Z translation acceleration, node 3, m/s^2
        154    7.355816162211E+000                                                     F               0         Blade 2 X translation acceleration, node 4, m/s^2
        155   -3.385719523522E+001                                                     F               0         Blade 2 Y translation acceleration, node 4, m/s^2
        156    9.347955106980E+001                                                     F               0         Blade 2 Z translation acceleration, node 4, m/s^2
        157    0.000000000000E+000                                                     F               0         Blade 2 X rotation acceleration, node 1, rad/s^2
        158    0.000000000000E+000                                                     F               0         Blade 2 Y rotation acceleration, node 1, rad/s^2
        159    0.000000000000E+000                                                     F               0         Blade 2 Z rotation acceleration, node 1, rad/s^2
        160    5.929376443582E-003                                                     F               0         Blade 2 X rotation acceleration, node 2, rad/s^2
        161   -2.240372968865E-002                                                     F               0         Blade 2 Y rotation acceleration, node 2, rad/s^2
        162    8.453038805073E-002                                                     F               0         Blade 2 Z rotation acceleration, node 2, rad/s^2