
Linearized model: Predictions were generated on 09-Dec-2025 at 21:55:15 using OpenFAST, compiled on Dec 09 2025 at 16:55:56 as a 64-bit application using double precision at commit v4.1.2-740-g10f0c46b-dirty
 linked with  NWTC Subroutine Library; ElastoDyn; BeamDyn; ServoDyn

Description from the FAST input file: FAST Certification Test #26: NREL 5.0 MW Baseline Wind Turbine (Onshore)

Simulation information:
   Simulation time:                     1.0005 s
   Rotor Speed:                         1.2670 rad/s
   Azimuth:                             1.2677 rad
   Wind Speed:                          0.0000 m/s
   Number of continuous states:       192
   Number of discrete states:           0
   Number of constraint states:         0
   Number of inputs:                    9
   Number of outputs:                  60
   Jacobians included in this file?    No

Order of continuous states:
   Row/Column Operating Point                                                   Rotating Frame? Derivative Order Description
   ---------- ---------------                                                   --------------- ---------------- -----------
          1   -1.852238774546E-002                                                     F               2         ED 1st tower fore-aft bending mode DOF (internal DOF index = DOF_TFA1), m
          2   -3.125127630506E-003                                                     F               2         ED 1st tower side-to-side bending mode DOF (internal DOF index = DOF_TSS1), m
          3   -3.204038015885E-005                                                     F               2         ED 2nd tower fore-aft bending mode DOF (internal DOF index = DOF_TFA2), m
          4    1.660665449590E-006                                                     F               2         ED 2nd tower side-to-side bending mode DOF (internal DOF index = DOF_TSS2), m
          5    2.209146282742E-005                                                     F               2         ED Nacelle yaw DOF (internal DOF index = DOF_Yaw), rad
          6   -3.404458136183E-005                                                     F               2         ED Drivetrain rotational-flexibility DOF (internal DOF index = DOF_DrTr), rad
          7   -2.345622418768E-002                                                     F               2         ED First time derivative of 1st tower fore-aft bending mode DOF (internal DOF index = DOF_TFA1), m/s
          8    4.883931932806E-003                                                     F               2         ED First time derivative of 1st tower side-to-side bending mode DOF (internal DOF index = DOF_TSS1), m/s
          9    7.173838131543E-004                                                     F               2         ED First time derivative of 2nd tower fore-aft bending mode DOF (internal DOF index = DOF_TFA2), m/s
         10    1.844969874073E-005                                                     F               2         ED First time derivative of 2nd tower side-to-side bending mode DOF (internal DOF index = DOF_TSS2), m/s
         11   -8.830024433092E-005                                                     F               2         ED First time derivative of Nacelle yaw DOF (internal DOF index = DOF_Yaw), rad/s
         12   -1.251097420659E-004                                                     F               2         ED First time derivative of Drivetrain rotational-flexibility DOF (internal DOF index = DOF_DrTr), rad/s
         13    2.501876432326E-003                                                     T               2         BD_1 finite element node 2 (number of elements = 1; element order = 5) translational displacement in X, m
         14   -5.603915241165E-003                                                     T               2         BD_1 finite element node 2 (number of elements = 1; element order = 5) translational displacement in Y, m
         15    5.218901429788E-004                                                     T               2         BD_1 finite element node 2 (number of elements = 1; element order = 5) translational displacement in Z, m
         16    1.354796136950E-003                                                     T               2         BD_1 finite element node 2 (number of elements = 1; element order = 5) rotational displacement in X, rad
         17    7.264024771524E-004                                                     T               2         BD_1 finite element node 2 (number of elements = 1; element order = 5) rotational displacement in Y, rad
         18   -7.961935627126E-006                                                     T               2         BD_1 finite element node 2 (number of elements = 1; element order = 5) rotational displacement in Z, rad
         19    3.843489101749E-002                                                     T               2         BD_1 finite element node 3 (number of elements = 1; element order = 5) translational displacement in X, m
         20   -5.861993747940E-002                                                     T               2         BD_1 finite element node 3 (number of elements = 1; element order = 5) translational displacement in Y, m
         21    2.543508784981E-003                                                     T               2         BD_1 finite element node 3 (number of elements = 1; element order = 5) translational displacement in Z, m
         22    5.327255249885E-003                                                     T               2         BD_1 finite element node 3 (number of elements = 1; element order = 5) rotational displacement in X, rad
         23    4.338212501984E-003                                                     T               2         BD_1 finite element node 3 (number of elements = 1; element order = 5) rotational displacement in Y, rad
         24   -9.061099383607E-005                                                     T               2         BD_1 finite element node 3 (number of elements = 1; element order = 5) rotational displacement in Z, rad
         25    1.705676588121E-001                                                     T               2         BD_1 finite element node 4 (number of elements = 1; element order = 5) translational displacement in X, m
         26   -1.902590701378E-001                                                     T               2         BD_1 finite element node 4 (number of elements = 1; element order = 5) translational displacement in Y, m
         27    5.869779286409E-003                                                     T               2         BD_1 finite element node 4 (number of elements = 1; element order = 5) translational displacement in Z, m
         28    8.626561493436E-003                                                     T               2         BD_1 finite element node 4 (number of elements = 1; element order = 5) rotational displacement in X, rad
         29    1.060772689898E-002                                                     T               2         BD_1 finite element node 4 (number of elements = 1; element order = 5) rotational displacement in Y, rad
         30   -2.490959334150E-004                                                     T               2         BD_1 finite element node 4 (number of elements = 1; element order = 5) rotational displacement in Z, rad
         31    3.672285544806E-001                                                     T               2         BD_1 finite element node 5 (number of elements = 1; element order = 5) translational displacement in X, m
         32   -3.313858031824E-001                                                     T               2         BD_1 finite element node 5 (number of elements = 1; element order = 5) translational displacement in Y, m
         33    8.201418427407E-003                                                     T               2         BD_1 finite element node 5 (number of elements = 1; element order = 5) translational displacement in Z, m
         34    9.813868789433E-003                                                     T               2         BD_1 finite element node 5 (number of elements = 1; element order = 5) rotational displacement in X, rad
         35    1.550191353082E-002                                                     T               2         BD_1 finite element node 5 (number of elements = 1; element order = 5) rotational displacement in Y, rad
         36   -2.982667910154E-004                                                     T               2         BD_1 finite element node 5 (number of elements = 1; element order = 5) rotational displacement in Z, rad
         37    4.854550825330E-001                                                     T               2         BD_1 finite element node 6 (number of elements = 1; element order = 5) translational displacement in X, m
         38   -4.051837878888E-001                                                     T               2         BD_1 finite element node 6 (number of elements = 1; element order = 5) translational displacement in Y, m
         39    8.022766672842E-003                                                     T               2         BD_1 finite element node 6 (number of elements = 1; element order = 5) translational displacement in Z, m
         40    1.001799973395E-002                                                     T               2         BD_1 finite element node 6 (number of elements = 1; element order = 5) rotational displacement in X, rad
         41    1.658088877297E-002                                                     T               2         BD_1 finite element node 6 (number of elements = 1; element order = 5) rotational displacement in Y, rad
         42   -2.819930121449E-004                                                     T               2         BD_1 finite element node 6 (number of elements = 1; element order = 5) rotational displacement in Z, rad
         43   -2.275168737909E-002                                                     T               2         BD_1 First time derivative of finite element node 2 (number of elements = 1; element order = 5) translational displacement in X, m/s
         44   -1.104530276767E+001                                                     T               2         BD_1 First time derivative of finite element node 2 (number of elements = 1; element order = 5) translational displacement in Y, m/s
         45   -1.715724543298E-003                                                     T               2         BD_1 First time derivative of finite element node 2 (number of elements = 1; element order = 5) translational displacement in Z, m/s
         46    1.265233320279E+000                                                     T               2         BD_1 First time derivative of finite element node 2 (number of elements = 1; element order = 5) rotational displacement in X, rad/s
         47   -8.957232168586E-005                                                     T               2         BD_1 First time derivative of finite element node 2 (number of elements = 1; element order = 5) rotational displacement in Y, rad/s
         48   -5.548152209137E-002                                                     T               2         BD_1 First time derivative of finite element node 2 (number of elements = 1; element order = 5) rotational displacement in Z, rad/s
         49   -2.809949283156E-002                                                     T               2         BD_1 First time derivative of finite element node 3 (number of elements = 1; element order = 5) translational displacement in X, m/s
         50   -2.969933904284E+001                                                     T               2         BD_1 First time derivative of finite element node 3 (number of elements = 1; element order = 5) translational displacement in Y, m/s
         51   -6.814601356251E-002                                                     T               2         BD_1 First time derivative of finite element node 3 (number of elements = 1; element order = 5) translational displacement in Z, m/s
         52    1.262854801447E+000                                                     T               2         BD_1 First time derivative of finite element node 3 (number of elements = 1; element order = 5) rotational displacement in X, rad/s
         53    5.777687737702E-005                                                     T               2         BD_1 First time derivative of finite element node 3 (number of elements = 1; element order = 5) rotational displacement in Y, rad/s
         54   -5.551285221181E-002                                                     T               2         BD_1 First time derivative of finite element node 3 (number of elements = 1; element order = 5) rotational displacement in Z, rad/s
         55   -1.261729943990E-002                                                     T               2         BD_1 First time derivative of finite element node 4 (number of elements = 1; element order = 5) translational displacement in X, m/s
         56   -5.183712238584E+001                                                     T               2         BD_1 First time derivative of finite element node 4 (number of elements = 1; element order = 5) translational displacement in Y, m/s
         57   -2.335428085394E-001                                                     T               2         BD_1 First time derivative of finite element node 4 (number of elements = 1; element order = 5) translational displacement in Z, m/s
         58    1.260560106309E+000                                                     T               2         BD_1 First time derivative of finite element node 4 (number of elements = 1; element order = 5) rotational displacement in X, rad/s
         59    2.967216326328E-003                                                     T               2         BD_1 First time derivative of finite element node 4 (number of elements = 1; element order = 5) rotational displacement in Y, rad/s
         60   -5.571220416904E-002                                                     T               2         BD_1 First time derivative of finite element node 4 (number of elements = 1; element order = 5) rotational displacement in Z, rad/s
         61    5.200641463991E-002                                                     T               2         BD_1 First time derivative of finite element node 5 (number of elements = 1; element order = 5) translational displacement in X, m/s
         62   -7.043866086040E+001                                                     T               2         BD_1 First time derivative of finite element node 5 (number of elements = 1; element order = 5) translational displacement in Y, m/s
         63   -4.115254757908E-001                                                     T               2         BD_1 First time derivative of finite element node 5 (number of elements = 1; element order = 5) translational displacement in Z, m/s
         64    1.259695978240E+000                                                     T               2         BD_1 First time derivative of finite element node 5 (number of elements = 1; element order = 5) rotational displacement in X, rad/s
         65    6.385304734278E-003                                                     T               2         BD_1 First time derivative of finite element node 5 (number of elements = 1; element order = 5) rotational displacement in Y, rad/s
         66   -5.601591191317E-002                                                     T               2         BD_1 First time derivative of finite element node 5 (number of elements = 1; element order = 5) rotational displacement in Z, rad/s
         67    9.608157224731E-002                                                     T               2         BD_1 First time derivative of finite element node 6 (number of elements = 1; element order = 5) translational displacement in X, m/s
         68   -7.954408118699E+001                                                     T               2         BD_1 First time derivative of finite element node 6 (number of elements = 1; element order = 5) translational displacement in Y, m/s
         69   -5.051683743453E-001                                                     T               2         BD_1 First time derivative of finite element node 6 (number of elements = 1; element order = 5) translational displacement in Z, m/s
         70    1.259535454298E+000                                                     T               2         BD_1 First time derivative of finite element node 6 (number of elements = 1; element order = 5) rotational displacement in X, rad/s
         71    6.286493165586E-003                                                     T               2         BD_1 First time derivative of finite element node 6 (number of elements = 1; element order = 5) rotational displacement in Y, rad/s
         72   -5.608138118495E-002                                                     T               2         BD_1 First time derivative of finite element node 6 (number of elements = 1; element order = 5) rotational displacement in Z, rad/s
         73    2.313070246483E-003                                                     T               2         BD_2 finite element node 2 (number of elements = 1; element order = 5) translational displacement in X, m
         74    1.178707489807E-003                                                     T               2         BD_2 finite element node 2 (number of elements = 1; element order = 5) translational displacement in Y, m
         75    6.924751045630E-004                                                     T               2         BD_2 finite element node 2 (number of elements = 1; element order = 5) translational displacement in Z, m
         76   -2.622642042800E-004                                                     T               2         BD_2 finite element node 2 (number of elements = 1; element order = 5) rotational displacement in X, rad
         77    6.255649239918E-004                                                     T               2         BD_2 finite element node 2 (number of elements = 1; element order = 5) rotational displacement in Y, rad
         78    7.772559855863E-006                                                     T               2         BD_2 finite element node 2 (number of elements = 1; element order = 5) rotational displacement in Z, rad
         79    3.152381679066E-002                                                     T               2         BD_2 finite element node 3 (number of elements = 1; element order = 5) translational displacement in X, m
         80    1.016991568802E-002                                                     T               2         BD_2 finite element node 3 (number of elements = 1; element order = 5) translational displacement in Y, m
         81    3.371201801098E-003                                                     T               2         BD_2 finite element node 3 (number of elements = 1; element order = 5) translational displacement in Z, m
         82   -7.977553784351E-004                                                     T               2         BD_2 finite element node 3 (number of elements = 1; element order = 5) rotational displacement in X, rad
         83    3.427876464233E-003                                                     T               2         BD_2 finite element node 3 (number of elements = 1; element order = 5) rotational displacement in Y, rad
         84    7.061792339786E-005                                                     T               2         BD_2 finite element node 3 (number of elements = 1; element order = 5) rotational displacement in Z, rad
         85    1.363368697454E-001                                                     T               2         BD_2 finite element node 4 (number of elements = 1; element order = 5) translational displacement in X, m
         86    2.777441390509E-002                                                     T               2         BD_2 finite element node 4 (number of elements = 1; element order = 5) translational displacement in Y, m
         87    8.165029662407E-003                                                     T               2         BD_2 finite element node 4 (number of elements = 1; element order = 5) translational displacement in Z, m
         88   -9.904414121757E-004                                                     T               2         BD_2 finite element node 4 (number of elements = 1; element order = 5) rotational displacement in X, rad
         89    8.415065166609E-003                                                     T               2         BD_2 finite element node 4 (number of elements = 1; element order = 5) rotational displacement in Y, rad
         90    1.595801370308E-004                                                     T               2         BD_2 finite element node 4 (number of elements = 1; element order = 5) rotational displacement in Z, rad
         91    2.943378512463E-001                                                     T               2         BD_2 finite element node 5 (number of elements = 1; element order = 5) translational displacement in X, m
         92    4.337438908758E-002                                                     T               2         BD_2 finite element node 5 (number of elements = 1; element order = 5) translational displacement in Y, m
         93    1.227913505388E-002                                                     T               2         BD_2 finite element node 5 (number of elements = 1; element order = 5) translational displacement in Z, m
         94   -1.035015476753E-003                                                     T               2         BD_2 finite element node 5 (number of elements = 1; element order = 5) rotational displacement in X, rad
         95    1.255163496481E-002                                                     T               2         BD_2 finite element node 5 (number of elements = 1; element order = 5) rotational displacement in Y, rad
         96    1.743352658991E-004                                                     T               2         BD_2 finite element node 5 (number of elements = 1; element order = 5) rotational displacement in Z, rad
         97    3.905448834249E-001                                                     T               2         BD_2 finite element node 6 (number of elements = 1; element order = 5) translational displacement in X, m
         98    5.159795350620E-002                                                     T               2         BD_2 finite element node 6 (number of elements = 1; element order = 5) translational displacement in Y, m
         99    1.291370731119E-002                                                     T               2         BD_2 finite element node 6 (number of elements = 1; element order = 5) translational displacement in Z, m
        100   -1.090083110889E-003                                                     T               2         BD_2 finite element node 6 (number of elements = 1; element order = 5) rotational displacement in X, rad
        101    1.349315612808E-002                                                     T               2         BD_2 finite element node 6 (number of elements = 1; element order = 5) rotational displacement in Y, rad
        102    1.883918455213E-004                                                     T               2         BD_2 finite element node 6 (number of elements = 1; element order = 5) rotational displacement in Z, rad
        103   -2.386028806177E-002                                                     T               2         BD_2 First time derivative of finite element node 2 (number of elements = 1; element order = 5) translational displacement in X, m/s
        104   -1.103604820275E+001                                                     T               2         BD_2 First time derivative of finite element node 2 (number of elements = 1; element order = 5) translational displacement in Y, m/s
        105    2.332797230008E-003                                                     T               2         BD_2 First time derivative of finite element node 2 (number of elements = 1; element order = 5) translational displacement in Z, m/s
        106    1.264857273523E+000                                                     T               2         BD_2 First time derivative of finite element node 2 (number of elements = 1; element order = 5) rotational displacement in X, rad/s
        107   -1.997701600027E-004                                                     T               2         BD_2 First time derivative of finite element node 2 (number of elements = 1; element order = 5) rotational displacement in Y, rad/s
        108   -5.512789539161E-002                                                     T               2         BD_2 First time derivative of finite element node 2 (number of elements = 1; element order = 5) rotational displacement in Z, rad/s
        109   -2.716756527126E-002                                                     T               2         BD_2 First time derivative of finite element node 3 (number of elements = 1; element order = 5) translational displacement in X, m/s
        110   -2.967950370356E+001                                                     T               2         BD_2 First time derivative of finite element node 3 (number of elements = 1; element order = 5) translational displacement in Y, m/s
        111    1.353032841951E-002                                                     T               2         BD_2 First time derivative of finite element node 3 (number of elements = 1; element order = 5) translational displacement in Z, m/s
        112    1.261971873959E+000                                                     T               2         BD_2 First time derivative of finite element node 3 (number of elements = 1; element order = 5) rotational displacement in X, rad/s
        113   -5.071462320228E-004                                                     T               2         BD_2 First time derivative of finite element node 3 (number of elements = 1; element order = 5) rotational displacement in Y, rad/s
        114   -5.486278184028E-002                                                     T               2         BD_2 First time derivative of finite element node 3 (number of elements = 1; element order = 5) rotational displacement in Z, rad/s
        115   -5.689821969387E-002                                                     T               2         BD_2 First time derivative of finite element node 4 (number of elements = 1; element order = 5) translational displacement in X, m/s
        116   -5.179739773805E+001                                                     T               2         BD_2 First time derivative of finite element node 4 (number of elements = 1; element order = 5) translational displacement in Y, m/s
        117    3.567091012754E-002                                                     T               2         BD_2 First time derivative of finite element node 4 (number of elements = 1; element order = 5) translational displacement in Z, m/s
        118    1.259073908414E+000                                                     T               2         BD_2 First time derivative of finite element node 4 (number of elements = 1; element order = 5) rotational displacement in X, rad/s
        119   -3.883287306938E-003                                                     T               2         BD_2 First time derivative of finite element node 4 (number of elements = 1; element order = 5) rotational displacement in Y, rad/s
        120   -5.402635602132E-002                                                     T               2         BD_2 First time derivative of finite element node 4 (number of elements = 1; element order = 5) rotational displacement in Z, rad/s
        121   -1.665420902928E-001                                                     T               2         BD_2 First time derivative of finite element node 5 (number of elements = 1; element order = 5) translational displacement in X, m/s
        122   -7.036963343881E+001                                                     T               2         BD_2 First time derivative of finite element node 5 (number of elements = 1; element order = 5) translational displacement in Y, m/s
        123    5.627433763673E-002                                                     T               2         BD_2 First time derivative of finite element node 5 (number of elements = 1; element order = 5) translational displacement in Z, m/s
        124    1.257299477364E+000                                                     T               2         BD_2 First time derivative of finite element node 5 (number of elements = 1; element order = 5) rotational displacement in X, rad/s
        125   -1.174048269731E-002                                                     T               2         BD_2 First time derivative of finite element node 5 (number of elements = 1; element order = 5) rotational displacement in Y, rad/s
        126   -5.318260200875E-002                                                     T               2         BD_2 First time derivative of finite element node 5 (number of elements = 1; element order = 5) rotational displacement in Z, rad/s