
Linearized model: Predictions were generated on 09-Dec-2025 at 17:32:05 using OpenFAST, compiled on Dec 09 2025 at 16:55:56 as a 64-bit application using double precision at commit v4.1.2-740-g10f0c46b-dirty
 linked with  NWTC Subroutine Library; ElastoDyn; InflowWind; AeroDyn; ServoDyn

Description from the FAST input file: NREL 5.0 MW Baseline Wind Turbine (Onshore), Linearization with AeroDyn + ED

Simulation information:
   Simulation time:                    58.8100 s
   Rotor Speed:                         1.0002 rad/s
   Azimuth:                             4.1975 rad
   Wind Speed:                          8.0000 m/s
   Number of continuous states:       258
   Number of discrete states:           0
   Number of constraint states:         0
   Number of inputs:                   72
   Number of outputs:                   5
   Jacobians included in this file?    No

Order of continuous states:
   Row/Column Operating Point                                                   Rotating Frame? Derivative Order Description
   ---------- ---------------                                                   --------------- ---------------- -----------
          1    2.084563234191E-001                                                     F               2         ED 1st tower fore-aft bending mode DOF (internal DOF index = DOF_TFA1), m
          2    2.476575004278E-002                                                     F               2         ED 1st tower side-to-side bending mode DOF (internal DOF index = DOF_TSS1), m
          3   -7.229781238171E-005                                                     F               2         ED 2nd tower fore-aft bending mode DOF (internal DOF index = DOF_TFA2), m
          4    1.396439891638E-004                                                     F               2         ED 2nd tower side-to-side bending mode DOF (internal DOF index = DOF_TSS2), m
          5    2.624499950670E+000                                                     F               2         ED Variable speed generator DOF (internal DOF index = DOF_GeAz), rad
          6    2.182269614893E-003                                                     F               2         ED Drivetrain rotational-flexibility DOF (internal DOF index = DOF_DrTr), rad
          7    3.050828575247E+000                                                     T               2         ED 1st flapwise bending-mode DOF of blade 1 (internal DOF index = DOF_BF(1,1)), m
          8    3.180300639866E+000                                                     T               2         ED 1st flapwise bending-mode DOF of blade 2 (internal DOF index = DOF_BF(2,1)), m
          9    3.354520470020E+000                                                     T               2         ED 1st flapwise bending-mode DOF of blade 3 (internal DOF index = DOF_BF(3,1)), m
         10    4.967796062396E-001                                                     T               2         ED 1st edgewise bending-mode DOF of blade 1 (internal DOF index = DOF_BE(1,1)), m
         11    8.060592143629E-002                                                     T               2         ED 1st edgewise bending-mode DOF of blade 2 (internal DOF index = DOF_BE(2,1)), m
         12   -3.099928384640E-001                                                     T               2         ED 1st edgewise bending-mode DOF of blade 3 (internal DOF index = DOF_BE(3,1)), m
         13    8.554501314663E-002                                                     T               2         ED 2nd flapwise bending-mode DOF of blade 1 (internal DOF index = DOF_BF(1,2)), m
         14    5.556500535379E-002                                                     T               2         ED 2nd flapwise bending-mode DOF of blade 2 (internal DOF index = DOF_BF(2,2)), m
         15   -8.289067543517E-003                                                     T               2         ED 2nd flapwise bending-mode DOF of blade 3 (internal DOF index = DOF_BF(3,2)), m
         16    1.321776853995E-004                                                     F               2         ED First time derivative of 1st tower fore-aft bending mode DOF (internal DOF index = DOF_TFA1), m/s
         17    4.288413605593E-003                                                     F               2         ED First time derivative of 1st tower side-to-side bending mode DOF (internal DOF index = DOF_TSS1), m/s
         18   -2.654776200263E-005                                                     F               2         ED First time derivative of 2nd tower fore-aft bending mode DOF (internal DOF index = DOF_TFA2), m/s
         19   -4.387513801289E-005                                                     F               2         ED First time derivative of 2nd tower side-to-side bending mode DOF (internal DOF index = DOF_TSS2), m/s
         20    1.000276931323E+000                                                     F               2         ED First time derivative of Variable speed generator DOF (internal DOF index = DOF_GeAz), rad/s
         21   -9.851517291050E-005                                                     F               2         ED First time derivative of Drivetrain rotational-flexibility DOF (internal DOF index = DOF_DrTr), rad/s
         22   -1.349775930660E-001                                                     T               2         ED First time derivative of 1st flapwise bending-mode DOF of blade 1 (internal DOF index = DOF_BF(1,1)), m/s
         23    2.079729399452E-001                                                     T               2         ED First time derivative of 1st flapwise bending-mode DOF of blade 2 (internal DOF index = DOF_BF(2,1)), m/s
         24   -1.094633829940E-001                                                     T               2         ED First time derivative of 1st flapwise bending-mode DOF of blade 3 (internal DOF index = DOF_BF(3,1)), m/s
         25    2.357171874100E-001                                                     T               2         ED First time derivative of 1st edgewise bending-mode DOF of blade 1 (internal DOF index = DOF_BE(1,1)), m/s
         26   -5.023598935064E-001                                                     T               2         ED First time derivative of 1st edgewise bending-mode DOF of blade 2 (internal DOF index = DOF_BE(2,1)), m/s
         27    2.799014427747E-001                                                     T               2         ED First time derivative of 1st edgewise bending-mode DOF of blade 3 (internal DOF index = DOF_BE(3,1)), m/s
         28    8.731493376833E-002                                                     T               2         ED First time derivative of 2nd flapwise bending-mode DOF of blade 1 (internal DOF index = DOF_BF(1,2)), m/s
         29   -6.465173428741E-002                                                     T               2         ED First time derivative of 2nd flapwise bending-mode DOF of blade 2 (internal DOF index = DOF_BF(2,2)), m/s
         30    2.169467772046E-002                                                     T               2         ED First time derivative of 2nd flapwise bending-mode DOF of blade 3 (internal DOF index = DOF_BF(3,2)), m/s
         31   -7.545092537982E+000                                                     T               2         AD vind (axial) at blade 1, node 1, m/s
         32    0.000000000000E+000                                                     T               2         AD vind (tangential) at blade 1, node 1, m/s
         33    0.000000000000E+000                                                     T               2         AD vind (axial) at blade 1, node 2, m/s
         34    0.000000000000E+000                                                     T               2         AD vind (tangential) at blade 1, node 2, m/s
         35    0.000000000000E+000                                                     T               2         AD vind (axial) at blade 1, node 3, m/s
         36    0.000000000000E+000                                                     T               2         AD vind (tangential) at blade 1, node 3, m/s
         37    0.000000000000E+000                                                     T               2         AD vind (axial) at blade 1, node 4, m/s
         38    0.000000000000E+000                                                     T               2         AD vind (tangential) at blade 1, node 4, m/s
         39   -2.007167403568E+000                                                     T               2         AD vind (axial) at blade 1, node 5, m/s
         40    9.401254196572E-001                                                     T               2         AD vind (tangential) at blade 1, node 5, m/s
         41   -2.167502573374E+000                                                     T               2         AD vind (axial) at blade 1, node 6, m/s
         42    7.598491574325E-001                                                     T               2         AD vind (tangential) at blade 1, node 6, m/s
         43   -1.991807090649E+000                                                     T               2         AD vind (axial) at blade 1, node 7, m/s
         44    5.829942921413E-001                                                     T               2         AD vind (tangential) at blade 1, node 7, m/s
         45   -1.980638205018E+000                                                     T               2         AD vind (axial) at blade 1, node 8, m/s
         46    4.863861066547E-001                                                     T               2         AD vind (tangential) at blade 1, node 8, m/s
         47   -2.217723335744E+000                                                     T               2         AD vind (axial) at blade 1, node 9, m/s
         48    4.488698083081E-001                                                     T               2         AD vind (tangential) at blade 1, node 9, m/s
         49   -2.292261968678E+000                                                     T               2         AD vind (axial) at blade 1, node 10, m/s
         50    4.010976044740E-001                                                     T               2         AD vind (tangential) at blade 1, node 10, m/s
         51   -2.573371460687E+000                                                     T               2         AD vind (axial) at blade 1, node 11, m/s
         52    3.802957851679E-001                                                     T               2         AD vind (tangential) at blade 1, node 11, m/s
         53   -2.772522265801E+000                                                     T               2         AD vind (axial) at blade 1, node 12, m/s
         54    3.548538982512E-001                                                     T               2         AD vind (tangential) at blade 1, node 12, m/s
         55   -2.627089848598E+000                                                     T               2         AD vind (axial) at blade 1, node 13, m/s
         56    3.138733030252E-001                                                     T               2         AD vind (tangential) at blade 1, node 13, m/s
         57   -2.739523902772E+000                                                     T               2         AD vind (axial) at blade 1, node 14, m/s
         58    2.930418883869E-001                                                     T               2         AD vind (tangential) at blade 1, node 14, m/s
         59   -2.898785939395E+000                                                     T               2         AD vind (axial) at blade 1, node 15, m/s
         60    2.767437486060E-001                                                     T               2         AD vind (tangential) at blade 1, node 15, m/s
         61   -3.154253632354E+000                                                     T               2         AD vind (axial) at blade 1, node 16, m/s
         62    2.681910270582E-001                                                     T               2         AD vind (tangential) at blade 1, node 16, m/s
         63   -3.468558774708E+000                                                     T               2         AD vind (axial) at blade 1, node 17, m/s
         64    2.653185435630E-001                                                     T               2         AD vind (tangential) at blade 1, node 17, m/s
         65   -3.618619475795E+000                                                     T               2         AD vind (axial) at blade 1, node 18, m/s
         66    2.612667583007E-001                                                     T               2         AD vind (tangential) at blade 1, node 18, m/s
         67   -7.911472314899E+000                                                     T               2         AD vind (axial) at blade 1, node 19, m/s
         68    0.000000000000E+000                                                     T               2         AD vind (tangential) at blade 1, node 19, m/s
         69   -7.783175016266E+000                                                     T               2         AD vind (axial) at blade 2, node 1, m/s
         70    0.000000000000E+000                                                     T               2         AD vind (tangential) at blade 2, node 1, m/s
         71    0.000000000000E+000                                                     T               2         AD vind (axial) at blade 2, node 2, m/s
         72    0.000000000000E+000                                                     T               2         AD vind (tangential) at blade 2, node 2, m/s
         73    0.000000000000E+000                                                     T               2         AD vind (axial) at blade 2, node 3, m/s
         74    0.000000000000E+000                                                     T               2         AD vind (tangential) at blade 2, node 3, m/s
         75    0.000000000000E+000                                                     T               2         AD vind (axial) at blade 2, node 4, m/s
         76    0.000000000000E+000                                                     T               2         AD vind (tangential) at blade 2, node 4, m/s
         77   -2.016701623496E+000                                                     T               2         AD vind (axial) at blade 2, node 5, m/s
         78    9.498747615399E-001                                                     T               2         AD vind (tangential) at blade 2, node 5, m/s
         79   -2.178684898820E+000                                                     T               2         AD vind (axial) at blade 2, node 6, m/s
         80    7.650904260738E-001                                                     T               2         AD vind (tangential) at blade 2, node 6, m/s
         81   -1.999170257665E+000                                                     T               2         AD vind (axial) at blade 2, node 7, m/s
         82    5.855128201889E-001                                                     T               2         AD vind (tangential) at blade 2, node 7, m/s
         83   -1.985725457832E+000                                                     T               2         AD vind (axial) at blade 2, node 8, m/s
         84    4.875518850130E-001                                                     T               2         AD vind (tangential) at blade 2, node 8, m/s
         85   -2.222561620641E+000                                                     T               2         AD vind (axial) at blade 2, node 9, m/s
         86    4.493776912319E-001                                                     T               2         AD vind (tangential) at blade 2, node 9, m/s
         87   -2.297311140786E+000                                                     T               2         AD vind (axial) at blade 2, node 10, m/s
         88    4.011332614182E-001                                                     T               2         AD vind (tangential) at blade 2, node 10, m/s
         89   -2.581138756486E+000                                                     T               2         AD vind (axial) at blade 2, node 11, m/s
         90    3.800757542918E-001                                                     T               2         AD vind (tangential) at blade 2, node 11, m/s
         91   -2.784436063225E+000                                                     T               2         AD vind (axial) at blade 2, node 12, m/s
         92    3.544338875870E-001                                                     T               2         AD vind (tangential) at blade 2, node 12, m/s
         93   -2.641239829109E+000                                                     T               2         AD vind (axial) at blade 2, node 13, m/s
         94    3.133900369302E-001                                                     T               2         AD vind (tangential) at blade 2, node 13, m/s
         95   -2.758507363290E+000                                                     T               2         AD vind (axial) at blade 2, node 14, m/s
         96    2.924806094511E-001                                                     T               2         AD vind (tangential) at blade 2, node 14, m/s
         97   -2.923291006364E+000                                                     T               2         AD vind (axial) at blade 2, node 15, m/s
         98    2.760499443695E-001                                                     T               2         AD vind (tangential) at blade 2, node 15, m/s
         99   -3.185351215981E+000                                                     T               2         AD vind (axial) at blade 2, node 16, m/s
        100    2.672011675813E-001                                                     T               2         AD vind (tangential) at blade 2, node 16, m/s
        101   -3.499771874408E+000                                                     T               2         AD vind (axial) at blade 2, node 17, m/s
        102    2.641858537343E-001                                                     T               2         AD vind (tangential) at blade 2, node 17, m/s
        103   -3.644737992660E+000                                                     T               2         AD vind (axial) at blade 2, node 18, m/s
        104    2.602386086049E-001                                                     T               2         AD vind (tangential) at blade 2, node 18, m/s
        105   -7.919809865629E+000                                                     T               2         AD vind (axial) at blade 2, node 19, m/s
        106    0.000000000000E+000                                                     T               2         AD vind (tangential) at blade 2, node 19, m/s
        107   -7.866894178911E+000                                                     T               2         AD vind (axial) at blade 3, node 1, m/s
        108    0.000000000000E+000                                                     T               2         AD vind (tangential) at blade 3, node 1, m/s
        109    0.000000000000E+000                                                     T               2         AD vind (axial) at blade 3, node 2, m/s
        110    0.000000000000E+000                                                     T               2         AD vind (tangential) at blade 3, node 2, m/s
        111    0.000000000000E+000                                                     T               2         AD vind (axial) at blade 3, node 3, m/s
        112    0.000000000000E+000                                                     T               2         AD vind (tangential) at blade 3, node 3, m/s
        113    0.000000000000E+000                                                     T               2         AD vind (axial) at blade 3, node 4, m/s
        114    0.000000000000E+000                                                     T               2         AD vind (tangential) at blade 3, node 4, m/s
        115   -2.024956512064E+000                                                     T               2         AD vind (axial) at blade 3, node 5, m/s
        116    9.551254420891E-001                                                     T               2         AD vind (tangential) at blade 3, node 5, m/s
        117   -2.185694105215E+000                                                     T               2         AD vind (axial) at blade 3, node 6, m/s
        118    7.681175902691E-001                                                     T               2         AD vind (tangential) at blade 3, node 6, m/s
        119   -2.003500654508E+000                                                     T               2         AD vind (axial) at blade 3, node 7, m/s
        120    5.870609255210E-001                                                     T               2         AD vind (tangential) at blade 3, node 7, m/s
        121   -1.988244912318E+000                                                     T               2         AD vind (axial) at blade 3, node 8, m/s
        122    4.883215427764E-001                                                     T               2         AD vind (tangential) at blade 3, node 8, m/s
        123   -2.223776754921E+000                                                     T               2         AD vind (axial) at blade 3, node 9, m/s
        124    4.497158874364E-001                                                     T               2         AD vind (tangential) at blade 3, node 9, m/s
        125   -2.296972912164E+000                                                     T               2         AD vind (axial) at blade 3, node 10, m/s
        126    4.011209717761E-001                                                     T               2         AD vind (tangential) at blade 3, node 10, m/s
        127   -2.579030450613E+000                                                     T               2         AD vind (axial) at blade 3, node 11, m/s
        128    3.798081972784E-001                                                     T               2         AD vind (tangential) at blade 3, node 11, m/s
        129   -2.779862999648E+000                                                     T               2         AD vind (axial) at blade 3, node 12, m/s
        130    3.539276429141E-001                                                     T               2         AD vind (tangential) at blade 3, node 12, m/s
        131   -2.634130081135E+000                                                     T               2         AD vind (axial) at blade 3, node 13, m/s
        132    3.126437180907E-001                                                     T               2         AD vind (tangential) at blade 3, node 13, m/s
        133   -2.747517598663E+000                                                     T               2         AD vind (axial) at blade 3, node 14, m/s
        134    2.915491255171E-001                                                     T               2         AD vind (tangential) at blade 3, node 14, m/s
        135   -2.907230244314E+000                                                     T               2         AD vind (axial) at blade 3, node 15, m/s
        136    2.750133273704E-001                                                     T               2         AD vind (tangential) at blade 3, node 15, m/s
        137   -3.163787919467E+000                                                     T               2         AD vind (axial) at blade 3, node 16, m/s
        138    2.662184553611E-001                                                     T               2         AD vind (tangential) at blade 3, node 16, m/s
        139   -3.477274846766E+000                                                     T               2         AD vind (axial) at blade 3, node 17, m/s
        140    2.632337314206E-001                                                     T               2         AD vind (tangential) at blade 3, node 17, m/s
        141   -3.624051554695E+000                                                     T               2         AD vind (axial) at blade 3, node 18, m/s
        142    2.594231519101E-001                                                     T               2         AD vind (tangential) at blade 3, node 18, m/s
        143   -7.912989487187E+000                                                     T               2         AD vind (axial) at blade 3, node 19, m/s
        144    0.000000000000E+000                                                     T               2         AD vind (tangential) at blade 3, node 19, m/s
        145   -3.040191240392E+000                                                     T               2         AD First time derivative of vind (axial) at blade 1, node 1, m/s/s
        146    0.000000000000E+000                                                     T               2         AD First time derivative of vind (tangential) at blade 1, node 1, m/s/s
        147    0.000000000000E+000                                                     T               2         AD First time derivative of vind (axial) at blade 1, node 2, m/s/s
        148    0.000000000000E+000                                                     T               2         AD First time derivative of vind (tangential) at blade 1, node 2, m/s/s
        149    0.000000000000E+000                                                     T               2         AD First time derivative of vind (axial) at blade 1, node 3, m/s/s
        150    0.000000000000E+000                                                     T               2         AD First time derivative of vind (tangential) at blade 1, node 3, m/s/s
        151    0.000000000000E+000                                                     T               2         AD First time derivative of vind (axial) at blade 1, node 4, m/s/s
        152    0.000000000000E+000                                                     T               2         AD First time derivative of vind (tangential) at blade 1, node 4, m/s/s
        153   -8.049799304779E-001                                                     T               2         AD First time derivative of vind (axial) at blade 1, node 5, m/s/s
        154    3.766841821048E-001                                                     T               2         AD First time derivative of vind (tangential) at blade 1, node 5, m/s/s
        155   -8.679146614014E-001                                                     T               2         AD First time derivative of vind (axial) at blade 1, node 6, m/s/s
        156    3.040507841892E-001                                                     T               2         AD First time derivative of vind (tangential) at blade 1, node 6, m/s/s
        157   -7.972209726974E-001                                                     T               2         AD First time derivative of vind (axial) at blade 1, node 7, m/s/s
        158    2.331933380918E-001                                                     T               2         AD First time derivative of vind (tangential) at blade 1, node 7, m/s/s
        159   -7.925799527791E-001                                                     T               2         AD First time derivative of vind (axial) at blade 1, node 8, m/s/s
        160    1.944973342797E-001                                                     T               2         AD First time derivative of vind (tangential) at blade 1, node 8, m/s/s
        161   -8.875144613002E-001                                                     T               2         AD First time derivative of vind (axial) at blade 1, node 9, m/s/s
        162    1.794715979576E-001                                                     T               2         AD First time derivative of vind (tangential) at blade 1, node 9, m/s/s
        163   -9.173466597646E-001                                                     T               2         AD First time derivative of vind (axial) at blade 1, node 10, m/s/s
        164    1.603323274158E-001                                                     T               2         AD First time derivative of vind (tangential) at blade 1, node 10, m/s/s
        165   -1.030143627468E+000                                                     T               2         AD First time derivative of vind (axial) at blade 1, node 11, m/s/s
        166    1.519933983674E-001                                                     T               2         AD First time derivative of vind (tangential) at blade 1, node 11, m/s/s
        167   -1.110215754443E+000                                                     T               2         AD First time derivative of vind (axial) at blade 1, node 12, m/s/s
        168    1.417927721204E-001                                                     T               2         AD First time derivative of vind (tangential) at blade 1, node 12, m/s/s
        169   -1.052149593114E+000                                                     T               2         AD First time derivative of vind (axial) at blade 1, node 13, m/s/s
        170    1.253917013311E-001                                                     T               2         AD First time derivative of vind (tangential) at blade 1, node 13, m/s/s