
Linearized model: Predictions were generated on 09-Dec-2025 at 17:32:05 using OpenFAST, compiled on Dec 09 2025 at 16:55:56 as a 64-bit application using double precision at commit v4.1.2-740-g10f0c46b-dirty
 linked with  NWTC Subroutine Library; ElastoDyn; InflowWind; AeroDyn; ServoDyn

Description from the FAST input file: NREL 5.0 MW Baseline Wind Turbine (Onshore), Linearization with AeroDyn + ED

Simulation information:
   Simulation time:                    56.7100 s
   Rotor Speed:                         1.0005 rad/s
   Azimuth:                             2.0971 rad
   Wind Speed:                          8.0000 m/s
   Number of continuous states:       258
   Number of discrete states:           0
   Number of constraint states:         0
   Number of inputs:                   72
   Number of outputs:                   5
   Jacobians included in this file?    No

Order of continuous states:
   Row/Column Operating Point                                                   Rotating Frame? Derivative Order Description
   ---------- ---------------                                                   --------------- ---------------- -----------
          1    2.083831488530E-001                                                     F               2         ED 1st tower fore-aft bending mode DOF (internal DOF index = DOF_TFA1), m
          2    2.288334584094E-002                                                     F               2         ED 1st tower side-to-side bending mode DOF (internal DOF index = DOF_TSS1), m
          3   -7.211465508696E-005                                                     F               2         ED 2nd tower fore-aft bending mode DOF (internal DOF index = DOF_TFA2), m
          4    1.407792455934E-004                                                     F               2         ED 2nd tower side-to-side bending mode DOF (internal DOF index = DOF_TSS2), m
          5    5.240904976458E-001                                                     F               2         ED Variable speed generator DOF (internal DOF index = DOF_GeAz), rad
          6    2.184954662991E-003                                                     F               2         ED Drivetrain rotational-flexibility DOF (internal DOF index = DOF_DrTr), rad
          7    3.353203391007E+000                                                     T               2         ED 1st flapwise bending-mode DOF of blade 1 (internal DOF index = DOF_BF(1,1)), m
          8    3.053854543355E+000                                                     T               2         ED 1st flapwise bending-mode DOF of blade 2 (internal DOF index = DOF_BF(2,1)), m
          9    3.178908837124E+000                                                     T               2         ED 1st flapwise bending-mode DOF of blade 3 (internal DOF index = DOF_BF(3,1)), m
         10   -3.117222945186E-001                                                     T               2         ED 1st edgewise bending-mode DOF of blade 1 (internal DOF index = DOF_BE(1,1)), m
         11    4.949494840144E-001                                                     T               2         ED 1st edgewise bending-mode DOF of blade 2 (internal DOF index = DOF_BE(2,1)), m
         12    8.374177140371E-002                                                     T               2         ED 1st edgewise bending-mode DOF of blade 3 (internal DOF index = DOF_BE(3,1)), m
         13   -8.486550788500E-003                                                     T               2         ED 2nd flapwise bending-mode DOF of blade 1 (internal DOF index = DOF_BF(1,2)), m
         14    8.501927840205E-002                                                     T               2         ED 2nd flapwise bending-mode DOF of blade 2 (internal DOF index = DOF_BF(2,2)), m
         15    5.600356311270E-002                                                     T               2         ED 2nd flapwise bending-mode DOF of blade 3 (internal DOF index = DOF_BF(3,2)), m
         16   -8.133299253265E-006                                                     F               2         ED First time derivative of 1st tower fore-aft bending mode DOF (internal DOF index = DOF_TFA1), m/s
         17   -9.089098741851E-003                                                     F               2         ED First time derivative of 1st tower side-to-side bending mode DOF (internal DOF index = DOF_TSS1), m/s
         18   -3.141342314088E-005                                                     F               2         ED First time derivative of 2nd tower fore-aft bending mode DOF (internal DOF index = DOF_TFA2), m/s
         19   -3.358272424526E-005                                                     F               2         ED First time derivative of 2nd tower side-to-side bending mode DOF (internal DOF index = DOF_TSS2), m/s
         20    1.000552276256E+000                                                     F               2         ED First time derivative of Variable speed generator DOF (internal DOF index = DOF_GeAz), rad/s
         21   -7.541714746278E-005                                                     F               2         ED First time derivative of Drivetrain rotational-flexibility DOF (internal DOF index = DOF_DrTr), rad/s
         22   -1.074204219342E-001                                                     T               2         ED First time derivative of 1st flapwise bending-mode DOF of blade 1 (internal DOF index = DOF_BF(1,1)), m/s
         23   -1.316202357407E-001                                                     T               2         ED First time derivative of 1st flapwise bending-mode DOF of blade 2 (internal DOF index = DOF_BF(2,1)), m/s
         24    2.037388075013E-001                                                     T               2         ED First time derivative of 1st flapwise bending-mode DOF of blade 3 (internal DOF index = DOF_BF(3,1)), m/s
         25    2.748113519368E-001                                                     T               2         ED First time derivative of 1st edgewise bending-mode DOF of blade 1 (internal DOF index = DOF_BE(1,1)), m/s
         26    2.431751393550E-001                                                     T               2         ED First time derivative of 1st edgewise bending-mode DOF of blade 2 (internal DOF index = DOF_BE(2,1)), m/s
         27   -4.985570111822E-001                                                     T               2         ED First time derivative of 1st edgewise bending-mode DOF of blade 3 (internal DOF index = DOF_BE(3,1)), m/s
         28    2.188047966399E-002                                                     T               2         ED First time derivative of 2nd flapwise bending-mode DOF of blade 1 (internal DOF index = DOF_BF(1,2)), m/s
         29    8.768219080046E-002                                                     T               2         ED First time derivative of 2nd flapwise bending-mode DOF of blade 2 (internal DOF index = DOF_BF(2,2)), m/s
         30   -6.381966031002E-002                                                     T               2         ED First time derivative of 2nd flapwise bending-mode DOF of blade 3 (internal DOF index = DOF_BF(3,2)), m/s
         31   -7.867456467562E+000                                                     T               2         AD vind (axial) at blade 1, node 1, m/s
         32    0.000000000000E+000                                                     T               2         AD vind (tangential) at blade 1, node 1, m/s
         33    0.000000000000E+000                                                     T               2         AD vind (axial) at blade 1, node 2, m/s
         34    0.000000000000E+000                                                     T               2         AD vind (tangential) at blade 1, node 2, m/s
         35    0.000000000000E+000                                                     T               2         AD vind (axial) at blade 1, node 3, m/s
         36    0.000000000000E+000                                                     T               2         AD vind (tangential) at blade 1, node 3, m/s
         37    0.000000000000E+000                                                     T               2         AD vind (axial) at blade 1, node 4, m/s
         38    0.000000000000E+000                                                     T               2         AD vind (tangential) at blade 1, node 4, m/s
         39   -2.025453675639E+000                                                     T               2         AD vind (axial) at blade 1, node 5, m/s
         40    9.550639669574E-001                                                     T               2         AD vind (tangential) at blade 1, node 5, m/s
         41   -2.185704643809E+000                                                     T               2         AD vind (axial) at blade 1, node 6, m/s
         42    7.679671028816E-001                                                     T               2         AD vind (tangential) at blade 1, node 6, m/s
         43   -2.003484876816E+000                                                     T               2         AD vind (axial) at blade 1, node 7, m/s
         44    5.869502672149E-001                                                     T               2         AD vind (tangential) at blade 1, node 7, m/s
         45   -1.988254284944E+000                                                     T               2         AD vind (axial) at blade 1, node 8, m/s
         46    4.882403106349E-001                                                     T               2         AD vind (tangential) at blade 1, node 8, m/s
         47   -2.223908227527E+000                                                     T               2         AD vind (axial) at blade 1, node 9, m/s
         48    4.496613241019E-001                                                     T               2         AD vind (tangential) at blade 1, node 9, m/s
         49   -2.297153371246E+000                                                     T               2         AD vind (axial) at blade 1, node 10, m/s
         50    4.010810275387E-001                                                     T               2         AD vind (tangential) at blade 1, node 10, m/s
         51   -2.579356315342E+000                                                     T               2         AD vind (axial) at blade 1, node 11, m/s
         52    3.797820289567E-001                                                     T               2         AD vind (tangential) at blade 1, node 11, m/s
         53   -2.780290213325E+000                                                     T               2         AD vind (axial) at blade 1, node 12, m/s
         54    3.539101328281E-001                                                     T               2         AD vind (tangential) at blade 1, node 12, m/s
         55   -2.634561190137E+000                                                     T               2         AD vind (axial) at blade 1, node 13, m/s
         56    3.126368103843E-001                                                     T               2         AD vind (tangential) at blade 1, node 13, m/s
         57   -2.748000843370E+000                                                     T               2         AD vind (axial) at blade 1, node 14, m/s
         58    2.915496475851E-001                                                     T               2         AD vind (tangential) at blade 1, node 14, m/s
         59   -2.907748132942E+000                                                     T               2         AD vind (axial) at blade 1, node 15, m/s
         60    2.750211417874E-001                                                     T               2         AD vind (tangential) at blade 1, node 15, m/s
         61   -3.164317867247E+000                                                     T               2         AD vind (axial) at blade 1, node 16, m/s
         62    2.662331720212E-001                                                     T               2         AD vind (tangential) at blade 1, node 16, m/s
         63   -3.477780337810E+000                                                     T               2         AD vind (axial) at blade 1, node 17, m/s
         64    2.632570868831E-001                                                     T               2         AD vind (tangential) at blade 1, node 17, m/s
         65   -3.624550420094E+000                                                     T               2         AD vind (axial) at blade 1, node 18, m/s
         66    2.594562248766E-001                                                     T               2         AD vind (tangential) at blade 1, node 18, m/s
         67   -7.914121907080E+000                                                     T               2         AD vind (axial) at blade 1, node 19, m/s
         68    0.000000000000E+000                                                     T               2         AD vind (tangential) at blade 1, node 19, m/s
         69   -7.544360889759E+000                                                     T               2         AD vind (axial) at blade 2, node 1, m/s
         70    0.000000000000E+000                                                     T               2         AD vind (tangential) at blade 2, node 1, m/s
         71    0.000000000000E+000                                                     T               2         AD vind (axial) at blade 2, node 2, m/s
         72    0.000000000000E+000                                                     T               2         AD vind (tangential) at blade 2, node 2, m/s
         73    0.000000000000E+000                                                     T               2         AD vind (axial) at blade 2, node 3, m/s
         74    0.000000000000E+000                                                     T               2         AD vind (tangential) at blade 2, node 3, m/s
         75    0.000000000000E+000                                                     T               2         AD vind (axial) at blade 2, node 4, m/s
         76    0.000000000000E+000                                                     T               2         AD vind (tangential) at blade 2, node 4, m/s
         77   -2.007523549053E+000                                                     T               2         AD vind (axial) at blade 2, node 5, m/s
         78    9.400157834224E-001                                                     T               2         AD vind (tangential) at blade 2, node 5, m/s
         79   -2.167422533363E+000                                                     T               2         AD vind (axial) at blade 2, node 6, m/s
         80    7.596755476900E-001                                                     T               2         AD vind (tangential) at blade 2, node 6, m/s
         81   -1.991700346431E+000                                                     T               2         AD vind (axial) at blade 2, node 7, m/s
         82    5.828687273998E-001                                                     T               2         AD vind (tangential) at blade 2, node 7, m/s
         83   -1.980558689790E+000                                                     T               2         AD vind (axial) at blade 2, node 8, m/s
         84    4.862917106460E-001                                                     T               2         AD vind (tangential) at blade 2, node 8, m/s
         85   -2.217734440825E+000                                                     T               2         AD vind (axial) at blade 2, node 9, m/s
         86    4.487972795179E-001                                                     T               2         AD vind (tangential) at blade 2, node 9, m/s
         87   -2.292314228684E+000                                                     T               2         AD vind (axial) at blade 2, node 10, m/s
         88    4.010362500450E-001                                                     T               2         AD vind (tangential) at blade 2, node 10, m/s
         89   -2.573548132698E+000                                                     T               2         AD vind (axial) at blade 2, node 11, m/s
         90    3.802425154642E-001                                                     T               2         AD vind (tangential) at blade 2, node 11, m/s
         91   -2.772805463594E+000                                                     T               2         AD vind (axial) at blade 2, node 12, m/s
         92    3.548031437824E-001                                                     T               2         AD vind (tangential) at blade 2, node 12, m/s
         93   -2.627397217427E+000                                                     T               2         AD vind (axial) at blade 2, node 13, m/s
         94    3.138271818100E-001                                                     T               2         AD vind (tangential) at blade 2, node 13, m/s
         95   -2.739927358019E+000                                                     T               2         AD vind (axial) at blade 2, node 14, m/s
         96    2.929933641392E-001                                                     T               2         AD vind (tangential) at blade 2, node 14, m/s
         97   -2.899310412558E+000                                                     T               2         AD vind (axial) at blade 2, node 15, m/s
         98    2.766875217892E-001                                                     T               2         AD vind (tangential) at blade 2, node 15, m/s
         99   -3.154867440710E+000                                                     T               2         AD vind (axial) at blade 2, node 16, m/s
        100    2.681209027879E-001                                                     T               2         AD vind (tangential) at blade 2, node 16, m/s
        101   -3.468962948749E+000                                                     T               2         AD vind (axial) at blade 2, node 17, m/s
        102    2.652393837222E-001                                                     T               2         AD vind (tangential) at blade 2, node 17, m/s
        103   -3.618678631429E+000                                                     T               2         AD vind (axial) at blade 2, node 18, m/s
        104    2.611732450544E-001                                                     T               2         AD vind (tangential) at blade 2, node 18, m/s
        105   -7.909696141705E+000                                                     T               2         AD vind (axial) at blade 2, node 19, m/s
        106    0.000000000000E+000                                                     T               2         AD vind (tangential) at blade 2, node 19, m/s
        107   -7.782853373853E+000                                                     T               2         AD vind (axial) at blade 3, node 1, m/s
        108    0.000000000000E+000                                                     T               2         AD vind (tangential) at blade 3, node 1, m/s
        109    0.000000000000E+000                                                     T               2         AD vind (axial) at blade 3, node 2, m/s
        110    0.000000000000E+000                                                     T               2         AD vind (tangential) at blade 3, node 2, m/s
        111    0.000000000000E+000                                                     T               2         AD vind (axial) at blade 3, node 3, m/s
        112    0.000000000000E+000                                                     T               2         AD vind (tangential) at blade 3, node 3, m/s
        113    0.000000000000E+000                                                     T               2         AD vind (axial) at blade 3, node 4, m/s
        114    0.000000000000E+000                                                     T               2         AD vind (tangential) at blade 3, node 4, m/s
        115   -2.016409643151E+000                                                     T               2         AD vind (axial) at blade 3, node 5, m/s
        116    9.498650811865E-001                                                     T               2         AD vind (tangential) at blade 3, node 5, m/s
        117   -2.178677277200E+000                                                     T               2         AD vind (axial) at blade 3, node 6, m/s
        118    7.651323905505E-001                                                     T               2         AD vind (tangential) at blade 3, node 6, m/s
        119   -1.999178725239E+000                                                     T               2         AD vind (axial) at blade 3, node 7, m/s
        120    5.855370313032E-001                                                     T               2         AD vind (tangential) at blade 3, node 7, m/s
        121   -1.985744387018E+000                                                     T               2         AD vind (axial) at blade 3, node 8, m/s
        122    4.875684805898E-001                                                     T               2         AD vind (tangential) at blade 3, node 8, m/s
        123   -2.222575722611E+000                                                     T               2         AD vind (axial) at blade 3, node 9, m/s
        124    4.493898141303E-001                                                     T               2         AD vind (tangential) at blade 3, node 9, m/s
        125   -2.297331767209E+000                                                     T               2         AD vind (axial) at blade 3, node 10, m/s
        126    4.011444914267E-001                                                     T               2         AD vind (tangential) at blade 3, node 10, m/s
        127   -2.581149515536E+000                                                     T               2         AD vind (axial) at blade 3, node 11, m/s
        128    3.800866266903E-001                                                     T               2         AD vind (tangential) at blade 3, node 11, m/s
        129   -2.784439661073E+000                                                     T               2         AD vind (axial) at blade 3, node 12, m/s
        130    3.544458858719E-001                                                     T               2         AD vind (tangential) at blade 3, node 12, m/s
        131   -2.641222092282E+000                                                     T               2         AD vind (axial) at blade 3, node 13, m/s
        132    3.134015758358E-001                                                     T               2         AD vind (tangential) at blade 3, node 13, m/s
        133   -2.758455361807E+000                                                     T               2         AD vind (axial) at blade 3, node 14, m/s
        134    2.924933785098E-001                                                     T               2         AD vind (tangential) at blade 3, node 14, m/s
        135   -2.923184360385E+000                                                     T               2         AD vind (axial) at blade 3, node 15, m/s
        136    2.760652605676E-001                                                     T               2         AD vind (tangential) at blade 3, node 15, m/s
        137   -3.185199445167E+000                                                     T               2         AD vind (axial) at blade 3, node 16, m/s
        138    2.672206078908E-001                                                     T               2         AD vind (tangential) at blade 3, node 16, m/s
        139   -3.499651960426E+000                                                     T               2         AD vind (axial) at blade 3, node 17, m/s
        140    2.642084601424E-001                                                     T               2         AD vind (tangential) at blade 3, node 17, m/s
        141   -3.644692563873E+000                                                     T               2         AD vind (axial) at blade 3, node 18, m/s
        142    2.602664605996E-001                                                     T               2         AD vind (tangential) at blade 3, node 18, m/s
        143   -7.920288258768E+000                                                     T               2         AD vind (axial) at blade 3, node 19, m/s
        144    0.000000000000E+000                                                     T               2         AD vind (tangential) at blade 3, node 19, m/s
        145   -3.135311681383E+000                                                     T               2         AD First time derivative of vind (axial) at blade 1, node 1, m/s/s
        146    0.000000000000E+000                                                     T               2         AD First time derivative of vind (tangential) at blade 1, node 1, m/s/s
        147    0.000000000000E+000                                                     T               2         AD First time derivative of vind (axial) at blade 1, node 2, m/s/s
        148    0.000000000000E+000                                                     T               2         AD First time derivative of vind (tangential) at blade 1, node 2, m/s/s
        149    0.000000000000E+000                                                     T               2         AD First time derivative of vind (axial) at blade 1, node 3, m/s/s
        150    0.000000000000E+000                                                     T               2         AD First time derivative of vind (tangential) at blade 1, node 3, m/s/s
        151    0.000000000000E+000                                                     T               2         AD First time derivative of vind (axial) at blade 1, node 4, m/s/s
        152    0.000000000000E+000                                                     T               2         AD First time derivative of vind (tangential) at blade 1, node 4, m/s/s
        153   -8.093343284716E-001                                                     T               2         AD First time derivative of vind (axial) at blade 1, node 5, m/s/s
        154    3.811921045087E-001                                                     T               2         AD First time derivative of vind (tangential) at blade 1, node 5, m/s/s
        155   -8.731875699193E-001                                                     T               2         AD First time derivative of vind (axial) at blade 1, node 6, m/s/s
        156    3.066161421253E-001                                                     T               2         AD First time derivative of vind (tangential) at blade 1, node 6, m/s/s
        157   -8.006294598844E-001                                                     T               2         AD First time derivative of vind (axial) at blade 1, node 7, m/s/s
        158    2.344491712824E-001                                                     T               2         AD First time derivative of vind (tangential) at blade 1, node 7, m/s/s
        159   -7.947795687111E-001                                                     T               2         AD First time derivative of vind (axial) at blade 1, node 8, m/s/s
        160    1.950952405615E-001                                                     T               2         AD First time derivative of vind (tangential) at blade 1, node 8, m/s/s
        161   -8.892416519948E-001                                                     T               2         AD First time derivative of vind (axial) at blade 1, node 9, m/s/s
        162    1.797385510388E-001                                                     T               2         AD First time derivative of vind (tangential) at blade 1, node 9, m/s/s
        163   -9.187339523919E-001                                                     T               2         AD First time derivative of vind (axial) at blade 1, node 10, m/s/s
        164    1.603646815661E-001                                                     T               2         AD First time derivative of vind (tangential) at blade 1, node 10, m/s/s
        165   -1.031864702742E+000                                                     T               2         AD First time derivative of vind (axial) at blade 1, node 11, m/s/s
        166    1.518888125833E-001                                                     T               2         AD First time derivative of vind (tangential) at blade 1, node 11, m/s/s
        167   -1.112549339275E+000                                                     T               2         AD First time derivative of vind (axial) at blade 1, node 12, m/s/s
        168    1.415805714794E-001                                                     T               2         AD First time derivative of vind (tangential) at blade 1, node 12, m/s/s
        169   -1.054605911085E+000                                                     T               2         AD First time derivative of vind (axial) at blade 1, node 13, m/s/s
        170    1.251173826367E-001                                                     T               2         AD First time derivative of vind (tangential) at blade 1, node 13, m/s/s