
Linearized model: Predictions were generated on 09-Dec-2025 at 22:30:58 using OpenFAST, compiled on Dec 09 2025 at 16:55:56 as a 64-bit application using double precision at commit v4.1.2-740-g10f0c46b-dirty
 linked with  NWTC Subroutine Library; ElastoDyn; InflowWind; AeroDyn; ServoDyn

Description from the FAST input file: NREL 5.0 MW Baseline Wind Turbine (Onshore), Linearization with AeroDyn + ED

Simulation information:
   Simulation time:                    56.7100 s
   Rotor Speed:                         1.0005 rad/s
   Azimuth:                             2.0971 rad
   Wind Speed:                          8.0000 m/s
   Number of continuous states:       258
   Number of discrete states:           0
   Number of constraint states:         0
   Number of inputs:                   72
   Number of outputs:                   5
   Jacobians included in this file?    No

Order of continuous states:
   Row/Column Operating Point                                                   Rotating Frame? Derivative Order Description
   ---------- ---------------                                                   --------------- ---------------- -----------
          1    2.081968408743E-001                                                     F               2         ED 1st tower fore-aft bending mode DOF (internal DOF index = DOF_TFA1), m
          2    2.288267152381E-002                                                     F               2         ED 1st tower side-to-side bending mode DOF (internal DOF index = DOF_TSS1), m
          3   -7.218629611189E-005                                                     F               2         ED 2nd tower fore-aft bending mode DOF (internal DOF index = DOF_TFA2), m
          4    1.407690957344E-004                                                     F               2         ED 2nd tower side-to-side bending mode DOF (internal DOF index = DOF_TSS2), m
          5    5.241449436053E-001                                                     F               2         ED Variable speed generator DOF (internal DOF index = DOF_GeAz), rad
          6    2.184935194005E-003                                                     F               2         ED Drivetrain rotational-flexibility DOF (internal DOF index = DOF_DrTr), rad
          7    3.350762766161E+000                                                     T               2         ED 1st flapwise bending-mode DOF of blade 1 (internal DOF index = DOF_BF(1,1)), m
          8    3.050981263800E+000                                                     T               2         ED 1st flapwise bending-mode DOF of blade 2 (internal DOF index = DOF_BF(2,1)), m
          9    3.176114525262E+000                                                     T               2         ED 1st flapwise bending-mode DOF of blade 3 (internal DOF index = DOF_BF(3,1)), m
         10   -3.116125388097E-001                                                     T               2         ED 1st edgewise bending-mode DOF of blade 1 (internal DOF index = DOF_BE(1,1)), m
         11    4.949773409125E-001                                                     T               2         ED 1st edgewise bending-mode DOF of blade 2 (internal DOF index = DOF_BE(2,1)), m
         12    8.377569166034E-002                                                     T               2         ED 1st edgewise bending-mode DOF of blade 3 (internal DOF index = DOF_BE(3,1)), m
         13   -8.596902317100E-003                                                     T               2         ED 2nd flapwise bending-mode DOF of blade 1 (internal DOF index = DOF_BF(1,2)), m
         14    8.495619325359E-002                                                     T               2         ED 2nd flapwise bending-mode DOF of blade 2 (internal DOF index = DOF_BF(2,2)), m
         15    5.589674004292E-002                                                     T               2         ED 2nd flapwise bending-mode DOF of blade 3 (internal DOF index = DOF_BF(3,2)), m
         16   -3.666886591608E-006                                                     F               2         ED First time derivative of 1st tower fore-aft bending mode DOF (internal DOF index = DOF_TFA1), m/s
         17   -9.080850940667E-003                                                     F               2         ED First time derivative of 1st tower side-to-side bending mode DOF (internal DOF index = DOF_TSS1), m/s
         18   -3.166217112382E-005                                                     F               2         ED First time derivative of 2nd tower fore-aft bending mode DOF (internal DOF index = DOF_TFA2), m/s
         19   -3.357990118805E-005                                                     F               2         ED First time derivative of 2nd tower side-to-side bending mode DOF (internal DOF index = DOF_TSS2), m/s
         20    1.000549890135E+000                                                     F               2         ED First time derivative of Variable speed generator DOF (internal DOF index = DOF_GeAz), rad/s
         21   -7.587258152654E-005                                                     F               2         ED First time derivative of Drivetrain rotational-flexibility DOF (internal DOF index = DOF_DrTr), rad/s
         22   -1.074646547963E-001                                                     T               2         ED First time derivative of 1st flapwise bending-mode DOF of blade 1 (internal DOF index = DOF_BF(1,1)), m/s
         23   -1.318789333790E-001                                                     T               2         ED First time derivative of 1st flapwise bending-mode DOF of blade 2 (internal DOF index = DOF_BF(2,1)), m/s
         24    2.039745851840E-001                                                     T               2         ED First time derivative of 1st flapwise bending-mode DOF of blade 3 (internal DOF index = DOF_BF(3,1)), m/s
         25    2.747640551038E-001                                                     T               2         ED First time derivative of 1st edgewise bending-mode DOF of blade 1 (internal DOF index = DOF_BE(1,1)), m/s
         26    2.430261939764E-001                                                     T               2         ED First time derivative of 1st edgewise bending-mode DOF of blade 2 (internal DOF index = DOF_BE(2,1)), m/s
         27   -4.984781524906E-001                                                     T               2         ED First time derivative of 1st edgewise bending-mode DOF of blade 3 (internal DOF index = DOF_BE(3,1)), m/s
         28    2.189472253724E-002                                                     T               2         ED First time derivative of 2nd flapwise bending-mode DOF of blade 1 (internal DOF index = DOF_BF(1,2)), m/s
         29    8.776566166355E-002                                                     T               2         ED First time derivative of 2nd flapwise bending-mode DOF of blade 2 (internal DOF index = DOF_BF(2,2)), m/s
         30   -6.387940337858E-002                                                     T               2         ED First time derivative of 2nd flapwise bending-mode DOF of blade 3 (internal DOF index = DOF_BF(3,2)), m/s
         31   -7.867452574072E+000                                                     T               2         AD vind (axial) at blade 1, node 1, m/s
         32    0.000000000000E+000                                                     T               2         AD vind (tangential) at blade 1, node 1, m/s
         33    0.000000000000E+000                                                     T               2         AD vind (axial) at blade 1, node 2, m/s
         34    0.000000000000E+000                                                     T               2         AD vind (tangential) at blade 1, node 2, m/s
         35    0.000000000000E+000                                                     T               2         AD vind (axial) at blade 1, node 3, m/s
         36    0.000000000000E+000                                                     T               2         AD vind (tangential) at blade 1, node 3, m/s
         37    0.000000000000E+000                                                     T               2         AD vind (axial) at blade 1, node 4, m/s
         38    0.000000000000E+000                                                     T               2         AD vind (tangential) at blade 1, node 4, m/s
         39   -2.024583689852E+000                                                     T               2         AD vind (axial) at blade 1, node 5, m/s
         40    9.548164358966E-001                                                     T               2         AD vind (tangential) at blade 1, node 5, m/s
         41   -2.183743380211E+000                                                     T               2         AD vind (axial) at blade 1, node 6, m/s
         42    7.675584782801E-001                                                     T               2         AD vind (tangential) at blade 1, node 6, m/s
         43   -2.001223440228E+000                                                     T               2         AD vind (axial) at blade 1, node 7, m/s
         44    5.865233143973E-001                                                     T               2         AD vind (tangential) at blade 1, node 7, m/s
         45   -1.985649062752E+000                                                     T               2         AD vind (axial) at blade 1, node 8, m/s
         46    4.878222394006E-001                                                     T               2         AD vind (tangential) at blade 1, node 8, m/s
         47   -2.220869960575E+000                                                     T               2         AD vind (axial) at blade 1, node 9, m/s
         48    4.492912540609E-001                                                     T               2         AD vind (tangential) at blade 1, node 9, m/s
         49   -2.293721767378E+000                                                     T               2         AD vind (axial) at blade 1, node 10, m/s
         50    4.007297250168E-001                                                     T               2         AD vind (tangential) at blade 1, node 10, m/s
         51   -2.575381662759E+000                                                     T               2         AD vind (axial) at blade 1, node 11, m/s
         52    3.794813997907E-001                                                     T               2         AD vind (tangential) at blade 1, node 11, m/s
         53   -2.775714994946E+000                                                     T               2         AD vind (axial) at blade 1, node 12, m/s
         54    3.536445852237E-001                                                     T               2         AD vind (tangential) at blade 1, node 12, m/s
         55   -2.630118439908E+000                                                     T               2         AD vind (axial) at blade 1, node 13, m/s
         56    3.123754965772E-001                                                     T               2         AD vind (tangential) at blade 1, node 13, m/s
         57   -2.743190220359E+000                                                     T               2         AD vind (axial) at blade 1, node 14, m/s
         58    2.913143869702E-001                                                     T               2         AD vind (tangential) at blade 1, node 14, m/s
         59   -2.902543260666E+000                                                     T               2         AD vind (axial) at blade 1, node 15, m/s
         60    2.748191798087E-001                                                     T               2         AD vind (tangential) at blade 1, node 15, m/s
         61   -3.158641982409E+000                                                     T               2         AD vind (axial) at blade 1, node 16, m/s
         62    2.660735949798E-001                                                     T               2         AD vind (tangential) at blade 1, node 16, m/s
         63   -3.472760132356E+000                                                     T               2         AD vind (axial) at blade 1, node 17, m/s
         64    2.630945595453E-001                                                     T               2         AD vind (tangential) at blade 1, node 17, m/s
         65   -3.620537208262E+000                                                     T               2         AD vind (axial) at blade 1, node 18, m/s
         66    2.592776298703E-001                                                     T               2         AD vind (tangential) at blade 1, node 18, m/s
         67   -7.914187722597E+000                                                     T               2         AD vind (axial) at blade 1, node 19, m/s
         68    0.000000000000E+000                                                     T               2         AD vind (tangential) at blade 1, node 19, m/s
         69   -7.544365207161E+000                                                     T               2         AD vind (axial) at blade 2, node 1, m/s
         70    0.000000000000E+000                                                     T               2         AD vind (tangential) at blade 2, node 1, m/s
         71    0.000000000000E+000                                                     T               2         AD vind (axial) at blade 2, node 2, m/s
         72    0.000000000000E+000                                                     T               2         AD vind (tangential) at blade 2, node 2, m/s
         73    0.000000000000E+000                                                     T               2         AD vind (axial) at blade 2, node 3, m/s
         74    0.000000000000E+000                                                     T               2         AD vind (tangential) at blade 2, node 3, m/s
         75    0.000000000000E+000                                                     T               2         AD vind (axial) at blade 2, node 4, m/s
         76    0.000000000000E+000                                                     T               2         AD vind (tangential) at blade 2, node 4, m/s
         77   -2.006612215862E+000                                                     T               2         AD vind (axial) at blade 2, node 5, m/s
         78    9.397618137810E-001                                                     T               2         AD vind (tangential) at blade 2, node 5, m/s
         79   -2.165472572504E+000                                                     T               2         AD vind (axial) at blade 2, node 6, m/s
         80    7.592705548195E-001                                                     T               2         AD vind (tangential) at blade 2, node 6, m/s
         81   -1.989442828691E+000                                                     T               2         AD vind (axial) at blade 2, node 7, m/s
         82    5.824433399877E-001                                                     T               2         AD vind (tangential) at blade 2, node 7, m/s
         83   -1.977964270636E+000                                                     T               2         AD vind (axial) at blade 2, node 8, m/s
         84    4.858760177373E-001                                                     T               2         AD vind (tangential) at blade 2, node 8, m/s
         85   -2.214704376717E+000                                                     T               2         AD vind (axial) at blade 2, node 9, m/s
         86    4.484287124136E-001                                                     T               2         AD vind (tangential) at blade 2, node 9, m/s
         87   -2.288902588314E+000                                                     T               2         AD vind (axial) at blade 2, node 10, m/s
         88    4.006873073014E-001                                                     T               2         AD vind (tangential) at blade 2, node 10, m/s
         89   -2.569594120492E+000                                                     T               2         AD vind (axial) at blade 2, node 11, m/s
         90    3.799436023670E-001                                                     T               2         AD vind (tangential) at blade 2, node 11, m/s
         91   -2.768275541404E+000                                                     T               2         AD vind (axial) at blade 2, node 12, m/s
         92    3.545403903023E-001                                                     T               2         AD vind (tangential) at blade 2, node 12, m/s
         93   -2.622988735828E+000                                                     T               2         AD vind (axial) at blade 2, node 13, m/s
         94    3.135680881368E-001                                                     T               2         AD vind (tangential) at blade 2, node 13, m/s
         95   -2.735164422439E+000                                                     T               2         AD vind (axial) at blade 2, node 14, m/s
         96    2.927603198331E-001                                                     T               2         AD vind (tangential) at blade 2, node 14, m/s
         97   -2.894180457866E+000                                                     T               2         AD vind (axial) at blade 2, node 15, m/s
         98    2.764874694990E-001                                                     T               2         AD vind (tangential) at blade 2, node 15, m/s
         99   -3.149341981180E+000                                                     T               2         AD vind (axial) at blade 2, node 16, m/s
        100    2.679621707669E-001                                                     T               2         AD vind (tangential) at blade 2, node 16, m/s
        101   -3.463996875665E+000                                                     T               2         AD vind (axial) at blade 2, node 17, m/s
        102    2.650824490707E-001                                                     T               2         AD vind (tangential) at blade 2, node 17, m/s
        103   -3.614702536058E+000                                                     T               2         AD vind (axial) at blade 2, node 18, m/s
        104    2.610025172950E-001                                                     T               2         AD vind (tangential) at blade 2, node 18, m/s
        105   -7.909912009017E+000                                                     T               2         AD vind (axial) at blade 2, node 19, m/s
        106    0.000000000000E+000                                                     T               2         AD vind (tangential) at blade 2, node 19, m/s
        107   -7.782857318977E+000                                                     T               2         AD vind (axial) at blade 3, node 1, m/s
        108    0.000000000000E+000                                                     T               2         AD vind (tangential) at blade 3, node 1, m/s
        109    0.000000000000E+000                                                     T               2         AD vind (axial) at blade 3, node 2, m/s
        110    0.000000000000E+000                                                     T               2         AD vind (tangential) at blade 3, node 2, m/s
        111    0.000000000000E+000                                                     T               2         AD vind (axial) at blade 3, node 3, m/s
        112    0.000000000000E+000                                                     T               2         AD vind (tangential) at blade 3, node 3, m/s
        113    0.000000000000E+000                                                     T               2         AD vind (axial) at blade 3, node 4, m/s
        114    0.000000000000E+000                                                     T               2         AD vind (tangential) at blade 3, node 4, m/s
        115   -2.015528758545E+000                                                     T               2         AD vind (axial) at blade 3, node 5, m/s
        116    9.496142381038E-001                                                     T               2         AD vind (tangential) at blade 3, node 5, m/s
        117   -2.176716766891E+000                                                     T               2         AD vind (axial) at blade 3, node 6, m/s
        118    7.647232993663E-001                                                     T               2         AD vind (tangential) at blade 3, node 6, m/s
        119   -1.996919487302E+000                                                     T               2         AD vind (axial) at blade 3, node 7, m/s
        120    5.851101604999E-001                                                     T               2         AD vind (tangential) at blade 3, node 7, m/s
        121   -1.983142614087E+000                                                     T               2         AD vind (axial) at blade 3, node 8, m/s
        122    4.871508649107E-001                                                     T               2         AD vind (tangential) at blade 3, node 8, m/s
        123   -2.219539444633E+000                                                     T               2         AD vind (axial) at blade 3, node 9, m/s
        124    4.490200422685E-001                                                     T               2         AD vind (tangential) at blade 3, node 9, m/s
        125   -2.293902917658E+000                                                     T               2         AD vind (axial) at blade 3, node 10, m/s
        126    4.007937138926E-001                                                     T               2         AD vind (tangential) at blade 3, node 10, m/s
        127   -2.577173854042E+000                                                     T               2         AD vind (axial) at blade 3, node 11, m/s
        128    3.797864743420E-001                                                     T               2         AD vind (tangential) at blade 3, node 11, m/s
        129   -2.779861882665E+000                                                     T               2         AD vind (axial) at blade 3, node 12, m/s
        130    3.541812505922E-001                                                     T               2         AD vind (tangential) at blade 3, node 12, m/s
        131   -2.636768484739E+000                                                     T               2         AD vind (axial) at blade 3, node 13, m/s
        132    3.131408932959E-001                                                     T               2         AD vind (tangential) at blade 3, node 13, m/s
        133   -2.753624206487E+000                                                     T               2         AD vind (axial) at blade 3, node 14, m/s
        134    2.922588416143E-001                                                     T               2         AD vind (tangential) at blade 3, node 14, m/s
        135   -2.917945892325E+000                                                     T               2         AD vind (axial) at blade 3, node 15, m/s
        136    2.758642818528E-001                                                     T               2         AD vind (tangential) at blade 3, node 15, m/s
        137   -3.179515244637E+000                                                     T               2         AD vind (axial) at blade 3, node 16, m/s
        138    2.670609588314E-001                                                     T               2         AD vind (tangential) at blade 3, node 16, m/s
        139   -3.494645848281E+000                                                     T               2         AD vind (axial) at blade 3, node 17, m/s
        140    2.640447731492E-001                                                     T               2         AD vind (tangential) at blade 3, node 17, m/s
        141   -3.640695876985E+000                                                     T               2         AD vind (axial) at blade 3, node 18, m/s
        142    2.600864481910E-001                                                     T               2         AD vind (tangential) at blade 3, node 18, m/s
        143   -7.920359812872E+000                                                     T               2         AD vind (axial) at blade 3, node 19, m/s
        144    0.000000000000E+000                                                     T               2         AD vind (tangential) at blade 3, node 19, m/s
        145   -3.135310963818E+000                                                     T               2         AD First time derivative of vind (axial) at blade 1, node 1, m/s/s
        146    0.000000000000E+000                                                     T               2         AD First time derivative of vind (tangential) at blade 1, node 1, m/s/s
        147    0.000000000000E+000                                                     T               2         AD First time derivative of vind (axial) at blade 1, node 2, m/s/s
        148    0.000000000000E+000                                                     T               2         AD First time derivative of vind (tangential) at blade 1, node 2, m/s/s
        149    0.000000000000E+000                                                     T               2         AD First time derivative of vind (axial) at blade 1, node 3, m/s/s
        150    0.000000000000E+000                                                     T               2         AD First time derivative of vind (tangential) at blade 1, node 3, m/s/s
        151    0.000000000000E+000                                                     T               2         AD First time derivative of vind (axial) at blade 1, node 4, m/s/s
        152    0.000000000000E+000                                                     T               2         AD First time derivative of vind (tangential) at blade 1, node 4, m/s/s
        153   -8.089836671446E-001                                                     T               2         AD First time derivative of vind (axial) at blade 1, node 5, m/s/s
        154    3.810926203128E-001                                                     T               2         AD First time derivative of vind (tangential) at blade 1, node 5, m/s/s
        155   -8.724025909453E-001                                                     T               2         AD First time derivative of vind (axial) at blade 1, node 6, m/s/s
        156    3.064527157460E-001                                                     T               2         AD First time derivative of vind (tangential) at blade 1, node 6, m/s/s
        157   -7.997248205659E-001                                                     T               2         AD First time derivative of vind (axial) at blade 1, node 7, m/s/s
        158    2.342784926598E-001                                                     T               2         AD First time derivative of vind (tangential) at blade 1, node 7, m/s/s
        159   -7.937376250463E-001                                                     T               2         AD First time derivative of vind (axial) at blade 1, node 8, m/s/s
        160    1.949281533732E-001                                                     T               2         AD First time derivative of vind (tangential) at blade 1, node 8, m/s/s
        161   -8.880260632553E-001                                                     T               2         AD First time derivative of vind (axial) at blade 1, node 9, m/s/s
        162    1.795906290384E-001                                                     T               2         AD First time derivative of vind (tangential) at blade 1, node 9, m/s/s
        163   -9.173611942628E-001                                                     T               2         AD First time derivative of vind (axial) at blade 1, node 10, m/s/s
        164    1.602243024050E-001                                                     T               2         AD First time derivative of vind (tangential) at blade 1, node 10, m/s/s
        165   -1.030273889717E+000                                                     T               2         AD First time derivative of vind (axial) at blade 1, node 11, m/s/s
        166    1.517686940436E-001                                                     T               2         AD First time derivative of vind (tangential) at blade 1, node 11, m/s/s
        167   -1.110718251023E+000                                                     T               2         AD First time derivative of vind (axial) at blade 1, node 12, m/s/s
        168    1.414745835251E-001                                                     T               2         AD First time derivative of vind (tangential) at blade 1, node 12, m/s/s
        169   -1.052826369930E+000                                                     T               2         AD First time derivative of vind (axial) at blade 1, node 13, m/s/s
        170    1.250130242615E-001                                                     T               2         AD First time derivative of vind (tangential) at blade 1, node 13, m/s/s