
Linearized model: Predictions were generated on 03-Nov-2025 at 12:27:06 using OpenFAST, compiled on Nov 03 2025 at 12:26:11 as a 64-bit application using double precision at commit v4.1.2-736-gb78e5fbc-dirty
 linked with  NWTC Subroutine Library; ElastoDyn; InflowWind; AeroDyn; ServoDyn

Description from the FAST input file: NREL 5.0 MW Baseline Wind Turbine (Onshore), Linearization with AeroDyn + ED

Simulation information:
   Simulation time:                    62.9900 s
   Rotor Speed:                         1.0004 rad/s
   Azimuth:                             2.0950 rad
   Wind Speed:                          8.0000 m/s
   Number of continuous states:       258
   Number of discrete states:           0
   Number of constraint states:         0
   Number of inputs:                   72
   Number of outputs:                   5
   Jacobians included in this file?    No

Order of continuous states:
   Row/Column Operating Point                                                   Rotating Frame? Derivative Order Description
   ---------- ---------------                                                   --------------- ---------------- -----------
          1    2.083949680037E-001                                                     F               2         ED 1st tower fore-aft bending mode DOF (internal DOF index = DOF_TFA1), m
          2    2.222465534054E-002                                                     F               2         ED 1st tower side-to-side bending mode DOF (internal DOF index = DOF_TSS1), m
          3   -7.206109813997E-005                                                     F               2         ED 2nd tower fore-aft bending mode DOF (internal DOF index = DOF_TFA2), m
          4    1.410375856109E-004                                                     F               2         ED 2nd tower side-to-side bending mode DOF (internal DOF index = DOF_TSS2), m
          5    5.220336322106E-001                                                     F               2         ED Variable speed generator DOF (internal DOF index = DOF_GeAz), rad
          6    2.184393556975E-003                                                     F               2         ED Drivetrain rotational-flexibility DOF (internal DOF index = DOF_DrTr), rad
          7    3.353384998781E+000                                                     T               2         ED 1st flapwise bending-mode DOF of blade 1 (internal DOF index = DOF_BF(1,1)), m
          8    3.054044203785E+000                                                     T               2         ED 1st flapwise bending-mode DOF of blade 2 (internal DOF index = DOF_BF(2,1)), m
          9    3.178283936039E+000                                                     T               2         ED 1st flapwise bending-mode DOF of blade 3 (internal DOF index = DOF_BF(3,1)), m
         10   -3.123847735165E-001                                                     T               2         ED 1st edgewise bending-mode DOF of blade 1 (internal DOF index = DOF_BE(1,1)), m
         11    4.944476404820E-001                                                     T               2         ED 1st edgewise bending-mode DOF of blade 2 (internal DOF index = DOF_BE(2,1)), m
         12    8.492697910405E-002                                                     T               2         ED 1st edgewise bending-mode DOF of blade 3 (internal DOF index = DOF_BE(3,1)), m
         13   -8.550701641917E-003                                                     T               2         ED 2nd flapwise bending-mode DOF of blade 1 (internal DOF index = DOF_BF(1,2)), m
         14    8.483775710445E-002                                                     T               2         ED 2nd flapwise bending-mode DOF of blade 2 (internal DOF index = DOF_BF(2,2)), m
         15    5.614970104557E-002                                                     T               2         ED 2nd flapwise bending-mode DOF of blade 3 (internal DOF index = DOF_BF(3,2)), m
         16    5.753696240213E-006                                                     F               2         ED First time derivative of 1st tower fore-aft bending mode DOF (internal DOF index = DOF_TFA1), m/s
         17   -8.217033143644E-003                                                     F               2         ED First time derivative of 1st tower side-to-side bending mode DOF (internal DOF index = DOF_TSS1), m/s
         18   -3.235749607972E-005                                                     F               2         ED First time derivative of 2nd tower fore-aft bending mode DOF (internal DOF index = DOF_TFA2), m/s
         19   -3.156058870021E-005                                                     F               2         ED First time derivative of 2nd tower side-to-side bending mode DOF (internal DOF index = DOF_TSS2), m/s
         20    1.000433807175E+000                                                     F               2         ED First time derivative of Variable speed generator DOF (internal DOF index = DOF_GeAz), rad/s
         21   -6.601154198040E-005                                                     F               2         ED First time derivative of Drivetrain rotational-flexibility DOF (internal DOF index = DOF_DrTr), rad/s
         22   -1.063814364172E-001                                                     T               2         ED First time derivative of 1st flapwise bending-mode DOF of blade 1 (internal DOF index = DOF_BF(1,1)), m/s
         23   -1.320647868743E-001                                                     T               2         ED First time derivative of 1st flapwise bending-mode DOF of blade 2 (internal DOF index = DOF_BF(2,1)), m/s
         24    2.040163473770E-001                                                     T               2         ED First time derivative of 1st flapwise bending-mode DOF of blade 3 (internal DOF index = DOF_BF(3,1)), m/s
         25    2.738342542078E-001                                                     T               2         ED First time derivative of 1st edgewise bending-mode DOF of blade 1 (internal DOF index = DOF_BE(1,1)), m/s
         26    2.463226098727E-001                                                     T               2         ED First time derivative of 1st edgewise bending-mode DOF of blade 2 (internal DOF index = DOF_BE(2,1)), m/s
         27   -4.989455956066E-001                                                     T               2         ED First time derivative of 1st edgewise bending-mode DOF of blade 3 (internal DOF index = DOF_BE(3,1)), m/s
         28    2.203266889053E-002                                                     T               2         ED First time derivative of 2nd flapwise bending-mode DOF of blade 1 (internal DOF index = DOF_BF(1,2)), m/s
         29    8.777096803592E-002                                                     T               2         ED First time derivative of 2nd flapwise bending-mode DOF of blade 2 (internal DOF index = DOF_BF(2,2)), m/s
         30   -6.367296777076E-002                                                     T               2         ED First time derivative of 2nd flapwise bending-mode DOF of blade 3 (internal DOF index = DOF_BF(3,2)), m/s
         31   -7.867606298925E+000                                                     T               2         AD vind (axial) at blade 1, node 1, m/s
         32    0.000000000000E+000                                                     T               2         AD vind (tangential) at blade 1, node 1, m/s
         33    0.000000000000E+000                                                     T               2         AD vind (axial) at blade 1, node 2, m/s
         34    0.000000000000E+000                                                     T               2         AD vind (tangential) at blade 1, node 2, m/s
         35    0.000000000000E+000                                                     T               2         AD vind (axial) at blade 1, node 3, m/s
         36    0.000000000000E+000                                                     T               2         AD vind (tangential) at blade 1, node 3, m/s
         37    0.000000000000E+000                                                     T               2         AD vind (axial) at blade 1, node 4, m/s
         38    0.000000000000E+000                                                     T               2         AD vind (tangential) at blade 1, node 4, m/s
         39   -2.024999490810E+000                                                     T               2         AD vind (axial) at blade 1, node 5, m/s
         40    9.550986979993E-001                                                     T               2         AD vind (tangential) at blade 1, node 5, m/s
         41   -2.185645493323E+000                                                     T               2         AD vind (axial) at blade 1, node 6, m/s
         42    7.680942744060E-001                                                     T               2         AD vind (tangential) at blade 1, node 6, m/s
         43   -2.003473256373E+000                                                     T               2         AD vind (axial) at blade 1, node 7, m/s
         44    5.870584187979E-001                                                     T               2         AD vind (tangential) at blade 1, node 7, m/s
         45   -1.988224303314E+000                                                     T               2         AD vind (axial) at blade 1, node 8, m/s
         46    4.883281973729E-001                                                     T               2         AD vind (tangential) at blade 1, node 8, m/s
         47   -2.223742087784E+000                                                     T               2         AD vind (axial) at blade 1, node 9, m/s
         48    4.497257946869E-001                                                     T               2         AD vind (tangential) at blade 1, node 9, m/s
         49   -2.296928618606E+000                                                     T               2         AD vind (axial) at blade 1, node 10, m/s
         50    4.011325169227E-001                                                     T               2         AD vind (tangential) at blade 1, node 10, m/s
         51   -2.578950301008E+000                                                     T               2         AD vind (axial) at blade 1, node 11, m/s
         52    3.798200185945E-001                                                     T               2         AD vind (tangential) at blade 1, node 11, m/s
         53   -2.779748498917E+000                                                     T               2         AD vind (axial) at blade 1, node 12, m/s
         54    3.539404825470E-001                                                     T               2         AD vind (tangential) at blade 1, node 12, m/s
         55   -2.634017474891E+000                                                     T               2         AD vind (axial) at blade 1, node 13, m/s
         56    3.126573390725E-001                                                     T               2         AD vind (tangential) at blade 1, node 13, m/s
         57   -2.747381643005E+000                                                     T               2         AD vind (axial) at blade 1, node 14, m/s
         58    2.915655621168E-001                                                     T               2         AD vind (tangential) at blade 1, node 14, m/s
         59   -2.907064497044E+000                                                     T               2         AD vind (axial) at blade 1, node 15, m/s
         60    2.750348213897E-001                                                     T               2         AD vind (tangential) at blade 1, node 15, m/s
         61   -3.163591430040E+000                                                     T               2         AD vind (axial) at blade 1, node 16, m/s
         62    2.662476454579E-001                                                     T               2         AD vind (tangential) at blade 1, node 16, m/s
         63   -3.477152350897E+000                                                     T               2         AD vind (axial) at blade 1, node 17, m/s
         64    2.632692095457E-001                                                     T               2         AD vind (tangential) at blade 1, node 17, m/s
         65   -3.624066681972E+000                                                     T               2         AD vind (axial) at blade 1, node 18, m/s
         66    2.594656042530E-001                                                     T               2         AD vind (tangential) at blade 1, node 18, m/s
         67   -7.913820229610E+000                                                     T               2         AD vind (axial) at blade 1, node 19, m/s
         68    0.000000000000E+000                                                     T               2         AD vind (tangential) at blade 1, node 19, m/s
         69   -7.544176157290E+000                                                     T               2         AD vind (axial) at blade 2, node 1, m/s
         70    0.000000000000E+000                                                     T               2         AD vind (tangential) at blade 2, node 1, m/s
         71    0.000000000000E+000                                                     T               2         AD vind (axial) at blade 2, node 2, m/s
         72    0.000000000000E+000                                                     T               2         AD vind (tangential) at blade 2, node 2, m/s
         73    0.000000000000E+000                                                     T               2         AD vind (axial) at blade 2, node 3, m/s
         74    0.000000000000E+000                                                     T               2         AD vind (tangential) at blade 2, node 3, m/s
         75    0.000000000000E+000                                                     T               2         AD vind (axial) at blade 2, node 4, m/s
         76    0.000000000000E+000                                                     T               2         AD vind (tangential) at blade 2, node 4, m/s
         77   -2.007129343161E+000                                                     T               2         AD vind (axial) at blade 2, node 5, m/s
         78    9.400220137831E-001                                                     T               2         AD vind (tangential) at blade 2, node 5, m/s
         79   -2.167342958443E+000                                                     T               2         AD vind (axial) at blade 2, node 6, m/s
         80    7.597747547764E-001                                                     T               2         AD vind (tangential) at blade 2, node 6, m/s
         81   -1.991671641402E+000                                                     T               2         AD vind (axial) at blade 2, node 7, m/s
         82    5.829602593351E-001                                                     T               2         AD vind (tangential) at blade 2, node 7, m/s
         83   -1.980516341847E+000                                                     T               2         AD vind (axial) at blade 2, node 8, m/s
         84    4.863687580607E-001                                                     T               2         AD vind (tangential) at blade 2, node 8, m/s
         85   -2.217566538269E+000                                                     T               2         AD vind (axial) at blade 2, node 9, m/s
         86    4.488547899050E-001                                                     T               2         AD vind (tangential) at blade 2, node 9, m/s
         87   -2.292088613605E+000                                                     T               2         AD vind (axial) at blade 2, node 10, m/s
         88    4.010828471680E-001                                                     T               2         AD vind (tangential) at blade 2, node 10, m/s
         89   -2.573147613744E+000                                                     T               2         AD vind (axial) at blade 2, node 11, m/s
         90    3.802773892680E-001                                                     T               2         AD vind (tangential) at blade 2, node 11, m/s
         91   -2.772264667990E+000                                                     T               2         AD vind (axial) at blade 2, node 12, m/s
         92    3.548313600523E-001                                                     T               2         AD vind (tangential) at blade 2, node 12, m/s
         93   -2.626850517429E+000                                                     T               2         AD vind (axial) at blade 2, node 13, m/s
         94    3.138469774589E-001                                                     T               2         AD vind (tangential) at blade 2, node 13, m/s
         95   -2.739296378968E+000                                                     T               2         AD vind (axial) at blade 2, node 14, m/s
         96    2.930096589741E-001                                                     T               2         AD vind (tangential) at blade 2, node 14, m/s
         97   -2.898598963536E+000                                                     T               2         AD vind (axial) at blade 2, node 15, m/s
         98    2.767031820152E-001                                                     T               2         AD vind (tangential) at blade 2, node 15, m/s
         99   -3.154091170695E+000                                                     T               2         AD vind (axial) at blade 2, node 16, m/s
        100    2.681397901655E-001                                                     T               2         AD vind (tangential) at blade 2, node 16, m/s
        101   -3.468272198405E+000                                                     T               2         AD vind (axial) at blade 2, node 17, m/s
        102    2.652584685044E-001                                                     T               2         AD vind (tangential) at blade 2, node 17, m/s
        103   -3.618153740481E+000                                                     T               2         AD vind (axial) at blade 2, node 18, m/s
        104    2.611917667587E-001                                                     T               2         AD vind (tangential) at blade 2, node 18, m/s
        105   -7.909563562195E+000                                                     T               2         AD vind (axial) at blade 2, node 19, m/s
        106    0.000000000000E+000                                                     T               2         AD vind (tangential) at blade 2, node 19, m/s
        107   -7.782700855980E+000                                                     T               2         AD vind (axial) at blade 3, node 1, m/s
        108    0.000000000000E+000                                                     T               2         AD vind (tangential) at blade 3, node 1, m/s
        109    0.000000000000E+000                                                     T               2         AD vind (axial) at blade 3, node 2, m/s
        110    0.000000000000E+000                                                     T               2         AD vind (tangential) at blade 3, node 2, m/s
        111    0.000000000000E+000                                                     T               2         AD vind (axial) at blade 3, node 3, m/s
        112    0.000000000000E+000                                                     T               2         AD vind (tangential) at blade 3, node 3, m/s
        113    0.000000000000E+000                                                     T               2         AD vind (axial) at blade 3, node 4, m/s
        114    0.000000000000E+000                                                     T               2         AD vind (tangential) at blade 3, node 4, m/s
        115   -2.015920356054E+000                                                     T               2         AD vind (axial) at blade 3, node 5, m/s
        116    9.499111914722E-001                                                     T               2         AD vind (tangential) at blade 3, node 5, m/s
        117   -2.178625788860E+000                                                     T               2         AD vind (axial) at blade 3, node 6, m/s
        118    7.652787816776E-001                                                     T               2         AD vind (tangential) at blade 3, node 6, m/s
        119   -1.999177325744E+000                                                     T               2         AD vind (axial) at blade 3, node 7, m/s
        120    5.856589710385E-001                                                     T               2         AD vind (tangential) at blade 3, node 7, m/s
        121   -1.985721761077E+000                                                     T               2         AD vind (axial) at blade 3, node 8, m/s
        122    4.876669143266E-001                                                     T               2         AD vind (tangential) at blade 3, node 8, m/s
        123   -2.222407061123E+000                                                     T               2         AD vind (axial) at blade 3, node 9, m/s
        124    4.494629442307E-001                                                     T               2         AD vind (tangential) at blade 3, node 9, m/s
        125   -2.297100280320E+000                                                     T               2         AD vind (axial) at blade 3, node 10, m/s
        126    4.012042552087E-001                                                     T               2         AD vind (tangential) at blade 3, node 10, m/s
        127   -2.580720923689E+000                                                     T               2         AD vind (axial) at blade 3, node 11, m/s
        128    3.801330682310E-001                                                     T               2         AD vind (tangential) at blade 3, node 11, m/s
        129   -2.783857498511E+000                                                     T               2         AD vind (axial) at blade 3, node 12, m/s
        130    3.544856178193E-001                                                     T               2         AD vind (tangential) at blade 3, node 12, m/s
        131   -2.640630735374E+000                                                     T               2         AD vind (axial) at blade 3, node 13, m/s
        132    3.134319744529E-001                                                     T               2         AD vind (tangential) at blade 3, node 13, m/s
        133   -2.757767846817E+000                                                     T               2         AD vind (axial) at blade 3, node 14, m/s
        134    2.925208168002E-001                                                     T               2         AD vind (tangential) at blade 3, node 14, m/s
        135   -2.922407158648E+000                                                     T               2         AD vind (axial) at blade 3, node 15, m/s
        136    2.760931529236E-001                                                     T               2         AD vind (tangential) at blade 3, node 15, m/s
        137   -3.184358962813E+000                                                     T               2         AD vind (axial) at blade 3, node 16, m/s
        138    2.672531889541E-001                                                     T               2         AD vind (tangential) at blade 3, node 16, m/s
        139   -3.498952704588E+000                                                     T               2         AD vind (axial) at blade 3, node 17, m/s
        140    2.642416080355E-001                                                     T               2         AD vind (tangential) at blade 3, node 17, m/s
        141   -3.644212947284E+000                                                     T               2         AD vind (axial) at blade 3, node 18, m/s
        142    2.603000768040E-001                                                     T               2         AD vind (tangential) at blade 3, node 18, m/s
        143   -7.920437051300E+000                                                     T               2         AD vind (axial) at blade 3, node 19, m/s
        144    0.000000000000E+000                                                     T               2         AD vind (tangential) at blade 3, node 19, m/s
        145   -3.135340607492E+000                                                     T               2         AD First time derivative of vind (axial) at blade 1, node 1, m/s/s
        146    0.000000000000E+000                                                     T               2         AD First time derivative of vind (tangential) at blade 1, node 1, m/s/s
        147    0.000000000000E+000                                                     T               2         AD First time derivative of vind (axial) at blade 1, node 2, m/s/s
        148    0.000000000000E+000                                                     T               2         AD First time derivative of vind (tangential) at blade 1, node 2, m/s/s
        149    0.000000000000E+000                                                     T               2         AD First time derivative of vind (axial) at blade 1, node 3, m/s/s
        150    0.000000000000E+000                                                     T               2         AD First time derivative of vind (tangential) at blade 1, node 3, m/s/s
        151    0.000000000000E+000                                                     T               2         AD First time derivative of vind (axial) at blade 1, node 4, m/s/s
        152    0.000000000000E+000                                                     T               2         AD First time derivative of vind (tangential) at blade 1, node 4, m/s/s
        153   -8.091201753816E-001                                                     T               2         AD First time derivative of vind (axial) at blade 1, node 5, m/s/s
        154    3.812113498183E-001                                                     T               2         AD First time derivative of vind (tangential) at blade 1, node 5, m/s/s
        155   -8.731629370651E-001                                                     T               2         AD First time derivative of vind (axial) at blade 1, node 6, m/s/s
        156    3.066802135752E-001                                                     T               2         AD First time derivative of vind (tangential) at blade 1, node 6, m/s/s
        157   -8.006271738236E-001                                                     T               2         AD First time derivative of vind (axial) at blade 1, node 7, m/s/s
        158    2.345040226011E-001                                                     T               2         AD First time derivative of vind (tangential) at blade 1, node 7, m/s/s
        159   -7.947674430244E-001                                                     T               2         AD First time derivative of vind (axial) at blade 1, node 8, m/s/s
        160    1.951403105360E-001                                                     T               2         AD First time derivative of vind (tangential) at blade 1, node 8, m/s/s
        161   -8.891601125513E-001                                                     T               2         AD First time derivative of vind (axial) at blade 1, node 9, m/s/s
        162    1.797723164049E-001                                                     T               2         AD First time derivative of vind (tangential) at blade 1, node 9, m/s/s
        163   -9.186206974615E-001                                                     T               2         AD First time derivative of vind (axial) at blade 1, node 10, m/s/s
        164    1.603923167012E-001                                                     T               2         AD First time derivative of vind (tangential) at blade 1, node 10, m/s/s
        165   -1.031653664946E+000                                                     T               2         AD First time derivative of vind (axial) at blade 1, node 11, m/s/s
        166    1.519100277730E-001                                                     T               2         AD First time derivative of vind (tangential) at blade 1, node 11, m/s/s
        167   -1.112260022573E+000                                                     T               2         AD First time derivative of vind (axial) at blade 1, node 12, m/s/s
        168    1.415983809709E-001                                                     T               2         AD First time derivative of vind (tangential) at blade 1, node 12, m/s/s
        169   -1.054308265356E+000                                                     T               2         AD First time derivative of vind (axial) at blade 1, node 13, m/s/s
        170    1.251304646776E-001                                                     T               2         AD First time derivative of vind (tangential) at blade 1, node 13, m/s/s