
Linearized model: Predictions were generated on 09-Dec-2025 at 17:32:05 using OpenFAST, compiled on Dec 09 2025 at 16:55:56 as a 64-bit application using double precision at commit v4.1.2-740-g10f0c46b-dirty
 linked with  NWTC Subroutine Library; ElastoDyn; InflowWind; AeroDyn; ServoDyn

Description from the FAST input file: NREL 5.0 MW Baseline Wind Turbine (Onshore), Linearization with AeroDyn + ED

Simulation information:
   Simulation time:                    54.6200 s
   Rotor Speed:                         1.0003 rad/s
   Azimuth:                             0.0066 rad
   Wind Speed:                          8.0000 m/s
   Number of continuous states:       258
   Number of discrete states:           0
   Number of constraint states:         0
   Number of inputs:                   72
   Number of outputs:                   5
   Jacobians included in this file?    No

Order of continuous states:
   Row/Column Operating Point                                                   Rotating Frame? Derivative Order Description
   ---------- ---------------                                                   --------------- ---------------- -----------
          1    2.083832168064E-001                                                     F               2         ED 1st tower fore-aft bending mode DOF (internal DOF index = DOF_TFA1), m
          2    1.756100148222E-002                                                     F               2         ED 1st tower side-to-side bending mode DOF (internal DOF index = DOF_TSS1), m
          3   -7.223956916170E-005                                                     F               2         ED 2nd tower fore-aft bending mode DOF (internal DOF index = DOF_TFA2), m
          4    1.423755702660E-004                                                     F               2         ED 2nd tower side-to-side bending mode DOF (internal DOF index = DOF_TSS2), m
          5    4.716833715507E+000                                                     F               2         ED Variable speed generator DOF (internal DOF index = DOF_GeAz), rad
          6    2.180498192076E-003                                                     F               2         ED Drivetrain rotational-flexibility DOF (internal DOF index = DOF_DrTr), rad
          7    3.178939705650E+000                                                     T               2         ED 1st flapwise bending-mode DOF of blade 1 (internal DOF index = DOF_BF(1,1)), m
          8    3.353399266817E+000                                                     T               2         ED 1st flapwise bending-mode DOF of blade 2 (internal DOF index = DOF_BF(2,1)), m
          9    3.053108595566E+000                                                     T               2         ED 1st flapwise bending-mode DOF of blade 3 (internal DOF index = DOF_BF(3,1)), m
         10    8.335557862417E-002                                                     T               2         ED 1st edgewise bending-mode DOF of blade 1 (internal DOF index = DOF_BE(1,1)), m
         11   -3.111779417259E-001                                                     T               2         ED 1st edgewise bending-mode DOF of blade 2 (internal DOF index = DOF_BE(2,1)), m
         12    4.954293487802E-001                                                     T               2         ED 1st edgewise bending-mode DOF of blade 3 (internal DOF index = DOF_BE(3,1)), m
         13    5.593617022681E-002                                                     T               2         ED 2nd flapwise bending-mode DOF of blade 1 (internal DOF index = DOF_BF(1,2)), m
         14   -8.460689397403E-003                                                     T               2         ED 2nd flapwise bending-mode DOF of blade 2 (internal DOF index = DOF_BF(2,2)), m
         15    8.529328868083E-002                                                     T               2         ED 2nd flapwise bending-mode DOF of blade 3 (internal DOF index = DOF_BF(3,2)), m
         16    2.515293695591E-004                                                     F               2         ED First time derivative of 1st tower fore-aft bending mode DOF (internal DOF index = DOF_TFA1), m/s
         17    1.056419864361E-003                                                     F               2         ED First time derivative of 1st tower side-to-side bending mode DOF (internal DOF index = DOF_TSS1), m/s
         18   -2.900368615687E-005                                                     F               2         ED First time derivative of 2nd tower fore-aft bending mode DOF (internal DOF index = DOF_TFA2), m/s
         19   -4.105125010761E-005                                                     F               2         ED First time derivative of 2nd tower side-to-side bending mode DOF (internal DOF index = DOF_TSS2), m/s
         20    1.000436791522E+000                                                     F               2         ED First time derivative of Variable speed generator DOF (internal DOF index = DOF_GeAz), rad/s
         21   -9.438607571355E-005                                                     F               2         ED First time derivative of Drivetrain rotational-flexibility DOF (internal DOF index = DOF_DrTr), rad/s
         22    2.053780804478E-001                                                     T               2         ED First time derivative of 1st flapwise bending-mode DOF of blade 1 (internal DOF index = DOF_BF(1,1)), m/s
         23   -1.038528595006E-001                                                     T               2         ED First time derivative of 1st flapwise bending-mode DOF of blade 2 (internal DOF index = DOF_BF(2,1)), m/s
         24   -1.376676391378E-001                                                     T               2         ED First time derivative of 1st flapwise bending-mode DOF of blade 3 (internal DOF index = DOF_BF(3,1)), m/s
         25   -5.004098817665E-001                                                     T               2         ED First time derivative of 1st edgewise bending-mode DOF of blade 1 (internal DOF index = DOF_BE(1,1)), m/s
         26    2.764587523885E-001                                                     T               2         ED First time derivative of 1st edgewise bending-mode DOF of blade 2 (internal DOF index = DOF_BE(2,1)), m/s
         27    2.402833593476E-001                                                     T               2         ED First time derivative of 1st edgewise bending-mode DOF of blade 3 (internal DOF index = DOF_BE(3,1)), m/s
         28   -6.445072429208E-002                                                     T               2         ED First time derivative of 2nd flapwise bending-mode DOF of blade 1 (internal DOF index = DOF_BF(1,2)), m/s
         29    2.174842958020E-002                                                     T               2         ED First time derivative of 2nd flapwise bending-mode DOF of blade 2 (internal DOF index = DOF_BF(2,2)), m/s
         30    8.771565412665E-002                                                     T               2         ED First time derivative of 2nd flapwise bending-mode DOF of blade 3 (internal DOF index = DOF_BF(3,2)), m/s
         31   -7.783118246379E+000                                                     T               2         AD vind (axial) at blade 1, node 1, m/s
         32    0.000000000000E+000                                                     T               2         AD vind (tangential) at blade 1, node 1, m/s
         33    0.000000000000E+000                                                     T               2         AD vind (axial) at blade 1, node 2, m/s
         34    0.000000000000E+000                                                     T               2         AD vind (tangential) at blade 1, node 2, m/s
         35    0.000000000000E+000                                                     T               2         AD vind (axial) at blade 1, node 3, m/s
         36    0.000000000000E+000                                                     T               2         AD vind (tangential) at blade 1, node 3, m/s
         37    0.000000000000E+000                                                     T               2         AD vind (axial) at blade 1, node 4, m/s
         38    0.000000000000E+000                                                     T               2         AD vind (tangential) at blade 1, node 4, m/s
         39   -2.016399807151E+000                                                     T               2         AD vind (axial) at blade 1, node 5, m/s
         40    9.498840852498E-001                                                     T               2         AD vind (tangential) at blade 1, node 5, m/s
         41   -2.178679498430E+000                                                     T               2         AD vind (axial) at blade 1, node 6, m/s
         42    7.651214801638E-001                                                     T               2         AD vind (tangential) at blade 1, node 6, m/s
         43   -1.999177137027E+000                                                     T               2         AD vind (axial) at blade 1, node 7, m/s
         44    5.855128200518E-001                                                     T               2         AD vind (tangential) at blade 1, node 7, m/s
         45   -1.985744138698E+000                                                     T               2         AD vind (axial) at blade 1, node 8, m/s
         46    4.875408630894E-001                                                     T               2         AD vind (tangential) at blade 1, node 8, m/s
         47   -2.222624448637E+000                                                     T               2         AD vind (axial) at blade 1, node 9, m/s
         48    4.493660548393E-001                                                     T               2         AD vind (tangential) at blade 1, node 9, m/s
         49   -2.297408091616E+000                                                     T               2         AD vind (axial) at blade 1, node 10, m/s
         50    4.011237701835E-001                                                     T               2         AD vind (tangential) at blade 1, node 10, m/s
         51   -2.581309425059E+000                                                     T               2         AD vind (axial) at blade 1, node 11, m/s
         52    3.800712899207E-001                                                     T               2         AD vind (tangential) at blade 1, node 11, m/s
         53   -2.784662989355E+000                                                     T               2         AD vind (axial) at blade 1, node 12, m/s
         54    3.544344054130E-001                                                     T               2         AD vind (tangential) at blade 1, node 12, m/s
         55   -2.641461899612E+000                                                     T               2         AD vind (axial) at blade 1, node 13, m/s
         56    3.133962661617E-001                                                     T               2         AD vind (tangential) at blade 1, node 13, m/s
         57   -2.758735386224E+000                                                     T               2         AD vind (axial) at blade 1, node 14, m/s
         58    2.924926397229E-001                                                     T               2         AD vind (tangential) at blade 1, node 14, m/s
         59   -2.923496900142E+000                                                     T               2         AD vind (axial) at blade 1, node 15, m/s
         60    2.760691370268E-001                                                     T               2         AD vind (tangential) at blade 1, node 15, m/s
         61   -3.185540405988E+000                                                     T               2         AD vind (axial) at blade 1, node 16, m/s
         62    2.672283397301E-001                                                     T               2         AD vind (tangential) at blade 1, node 16, m/s
         63   -3.499994066868E+000                                                     T               2         AD vind (axial) at blade 1, node 17, m/s
         64    2.642209098870E-001                                                     T               2         AD vind (tangential) at blade 1, node 17, m/s
         65   -3.645037204737E+000                                                     T               2         AD vind (axial) at blade 1, node 18, m/s
         66    2.602842734034E-001                                                     T               2         AD vind (tangential) at blade 1, node 18, m/s
         67   -7.920995326305E+000                                                     T               2         AD vind (axial) at blade 1, node 19, m/s
         68    0.000000000000E+000                                                     T               2         AD vind (tangential) at blade 1, node 19, m/s
         69   -7.867191544662E+000                                                     T               2         AD vind (axial) at blade 2, node 1, m/s
         70    0.000000000000E+000                                                     T               2         AD vind (tangential) at blade 2, node 1, m/s
         71    0.000000000000E+000                                                     T               2         AD vind (axial) at blade 2, node 2, m/s
         72    0.000000000000E+000                                                     T               2         AD vind (tangential) at blade 2, node 2, m/s
         73    0.000000000000E+000                                                     T               2         AD vind (axial) at blade 2, node 3, m/s
         74    0.000000000000E+000                                                     T               2         AD vind (tangential) at blade 2, node 3, m/s
         75    0.000000000000E+000                                                     T               2         AD vind (axial) at blade 2, node 4, m/s
         76    0.000000000000E+000                                                     T               2         AD vind (tangential) at blade 2, node 4, m/s
         77   -2.025700923825E+000                                                     T               2         AD vind (axial) at blade 2, node 5, m/s
         78    9.550840638123E-001                                                     T               2         AD vind (tangential) at blade 2, node 5, m/s
         79   -2.185782615316E+000                                                     T               2         AD vind (axial) at blade 2, node 6, m/s
         80    7.679332533121E-001                                                     T               2         AD vind (tangential) at blade 2, node 6, m/s
         81   -2.003523521648E+000                                                     T               2         AD vind (axial) at blade 2, node 7, m/s
         82    5.869144179394E-001                                                     T               2         AD vind (tangential) at blade 2, node 7, m/s
         83   -1.988290286458E+000                                                     T               2         AD vind (axial) at blade 2, node 8, m/s
         84    4.882071415003E-001                                                     T               2         AD vind (tangential) at blade 2, node 8, m/s
         85   -2.223996756754E+000                                                     T               2         AD vind (axial) at blade 2, node 9, m/s
         86    4.496339768393E-001                                                     T               2         AD vind (tangential) at blade 2, node 9, m/s
         87   -2.297260669829E+000                                                     T               2         AD vind (axial) at blade 2, node 10, m/s
         88    4.010553091354E-001                                                     T               2         AD vind (tangential) at blade 2, node 10, m/s
         89   -2.579544173427E+000                                                     T               2         AD vind (axial) at blade 2, node 11, m/s
         90    3.797581617615E-001                                                     T               2         AD vind (tangential) at blade 2, node 11, m/s
         91   -2.780543414940E+000                                                     T               2         AD vind (axial) at blade 2, node 12, m/s
         92    3.538847531951E-001                                                     T               2         AD vind (tangential) at blade 2, node 12, m/s
         93   -2.634818829487E+000                                                     T               2         AD vind (axial) at blade 2, node 13, m/s
         94    3.126113148101E-001                                                     T               2         AD vind (tangential) at blade 2, node 13, m/s
         95   -2.748313004942E+000                                                     T               2         AD vind (axial) at blade 2, node 14, m/s
         96    2.915195630815E-001                                                     T               2         AD vind (tangential) at blade 2, node 14, m/s
         97   -2.908128040949E+000                                                     T               2         AD vind (axial) at blade 2, node 15, m/s
         98    2.749822478623E-001                                                     T               2         AD vind (tangential) at blade 2, node 15, m/s
         99   -3.164765610396E+000                                                     T               2         AD vind (axial) at blade 2, node 16, m/s
        100    2.661798460715E-001                                                     T               2         AD vind (tangential) at blade 2, node 16, m/s
        101   -3.478095220765E+000                                                     T               2         AD vind (axial) at blade 2, node 17, m/s
        102    2.631916757644E-001                                                     T               2         AD vind (tangential) at blade 2, node 17, m/s
        103   -3.624594428569E+000                                                     T               2         AD vind (axial) at blade 2, node 18, m/s
        104    2.593757504293E-001                                                     T               2         AD vind (tangential) at blade 2, node 18, m/s
        105   -7.912540254051E+000                                                     T               2         AD vind (axial) at blade 2, node 19, m/s
        106    0.000000000000E+000                                                     T               2         AD vind (tangential) at blade 2, node 19, m/s
        107   -7.544708580850E+000                                                     T               2         AD vind (axial) at blade 3, node 1, m/s
        108    0.000000000000E+000                                                     T               2         AD vind (tangential) at blade 3, node 1, m/s
        109    0.000000000000E+000                                                     T               2         AD vind (axial) at blade 3, node 2, m/s
        110    0.000000000000E+000                                                     T               2         AD vind (tangential) at blade 3, node 2, m/s
        111    0.000000000000E+000                                                     T               2         AD vind (axial) at blade 3, node 3, m/s
        112    0.000000000000E+000                                                     T               2         AD vind (tangential) at blade 3, node 3, m/s
        113    0.000000000000E+000                                                     T               2         AD vind (axial) at blade 3, node 4, m/s
        114    0.000000000000E+000                                                     T               2         AD vind (tangential) at blade 3, node 4, m/s
        115   -2.007960541920E+000                                                     T               2         AD vind (axial) at blade 3, node 5, m/s
        116    9.399366584898E-001                                                     T               2         AD vind (tangential) at blade 3, node 5, m/s
        117   -2.167498871290E+000                                                     T               2         AD vind (axial) at blade 3, node 6, m/s
        118    7.595414058743E-001                                                     T               2         AD vind (tangential) at blade 3, node 6, m/s
        119   -1.991723885566E+000                                                     T               2         AD vind (axial) at blade 3, node 7, m/s
        120    5.827620538041E-001                                                     T               2         AD vind (tangential) at blade 3, node 7, m/s
        121   -1.980612204843E+000                                                     T               2         AD vind (axial) at blade 3, node 8, m/s
        122    4.862118090044E-001                                                     T               2         AD vind (tangential) at blade 3, node 8, m/s
        123   -2.217919575719E+000                                                     T               2         AD vind (axial) at blade 3, node 9, m/s
        124    4.487431495786E-001                                                     T               2         AD vind (tangential) at blade 3, node 9, m/s
        125   -2.292559918957E+000                                                     T               2         AD vind (axial) at blade 3, node 10, m/s
        126    4.009976892935E-001                                                     T               2         AD vind (tangential) at blade 3, node 10, m/s
        127   -2.573950692902E+000                                                     T               2         AD vind (axial) at blade 3, node 11, m/s
        128    3.802184225113E-001                                                     T               2         AD vind (tangential) at blade 3, node 11, m/s
        129   -2.773337857416E+000                                                     T               2         AD vind (axial) at blade 3, node 12, m/s
        130    3.547898481466E-001                                                     T               2         AD vind (tangential) at blade 3, node 12, m/s
        131   -2.627902865814E+000                                                     T               2         AD vind (axial) at blade 3, node 13, m/s
        132    3.138234625751E-001                                                     T               2         AD vind (tangential) at blade 3, node 13, m/s
        133   -2.740473150571E+000                                                     T               2         AD vind (axial) at blade 3, node 14, m/s
        134    2.929971298630E-001                                                     T               2         AD vind (tangential) at blade 3, node 14, m/s
        135   -2.899862223334E+000                                                     T               2         AD vind (axial) at blade 3, node 15, m/s
        136    2.766985978609E-001                                                     T               2         AD vind (tangential) at blade 3, node 15, m/s
        137   -3.155411655969E+000                                                     T               2         AD vind (axial) at blade 3, node 16, m/s
        138    2.681395473396E-001                                                     T               2         AD vind (tangential) at blade 3, node 16, m/s
        139   -3.469533546115E+000                                                     T               2         AD vind (axial) at blade 3, node 17, m/s
        140    2.652641262439E-001                                                     T               2         AD vind (tangential) at blade 3, node 17, m/s
        141   -3.619267508434E+000                                                     T               2         AD vind (axial) at blade 3, node 18, m/s
        142    2.612090523057E-001                                                     T               2         AD vind (tangential) at blade 3, node 18, m/s
        143   -7.911009685816E+000                                                     T               2         AD vind (axial) at blade 3, node 19, m/s
        144    0.000000000000E+000                                                     T               2         AD vind (tangential) at blade 3, node 19, m/s
        145   -3.101233334632E+000                                                     T               2         AD First time derivative of vind (axial) at blade 1, node 1, m/s/s
        146    0.000000000000E+000                                                     T               2         AD First time derivative of vind (tangential) at blade 1, node 1, m/s/s
        147    0.000000000000E+000                                                     T               2         AD First time derivative of vind (axial) at blade 1, node 2, m/s/s
        148    0.000000000000E+000                                                     T               2         AD First time derivative of vind (tangential) at blade 1, node 2, m/s/s
        149    0.000000000000E+000                                                     T               2         AD First time derivative of vind (axial) at blade 1, node 3, m/s/s
        150    0.000000000000E+000                                                     T               2         AD First time derivative of vind (tangential) at blade 1, node 3, m/s/s
        151    0.000000000000E+000                                                     T               2         AD First time derivative of vind (axial) at blade 1, node 4, m/s/s
        152    0.000000000000E+000                                                     T               2         AD First time derivative of vind (tangential) at blade 1, node 4, m/s/s
        153   -8.066235412413E-001                                                     T               2         AD First time derivative of vind (axial) at blade 1, node 5, m/s/s
        154    3.793847953584E-001                                                     T               2         AD First time derivative of vind (tangential) at blade 1, node 5, m/s/s
        155   -8.708954988695E-001                                                     T               2         AD First time derivative of vind (axial) at blade 1, node 6, m/s/s
        156    3.056431180562E-001                                                     T               2         AD First time derivative of vind (tangential) at blade 1, node 6, m/s/s
        157   -7.992339891615E-001                                                     T               2         AD First time derivative of vind (axial) at blade 1, node 7, m/s/s
        158    2.339825200027E-001                                                     T               2         AD First time derivative of vind (tangential) at blade 1, node 7, m/s/s
        159   -7.939839410771E-001                                                     T               2         AD First time derivative of vind (axial) at blade 1, node 8, m/s/s
        160    1.948947763896E-001                                                     T               2         AD First time derivative of vind (tangential) at blade 1, node 8, m/s/s
        161   -8.887829336337E-001                                                     T               2         AD First time derivative of vind (axial) at blade 1, node 9, m/s/s
        162    1.796841678951E-001                                                     T               2         AD First time derivative of vind (tangential) at blade 1, node 9, m/s/s
        163   -9.186590600107E-001                                                     T               2         AD First time derivative of vind (axial) at blade 1, node 10, m/s/s
        164    1.604318384670E-001                                                     T               2         AD First time derivative of vind (tangential) at blade 1, node 10, m/s/s
        165   -1.031987733581E+000                                                     T               2         AD First time derivative of vind (axial) at blade 1, node 11, m/s/s
        166    1.520434725018E-001                                                     T               2         AD First time derivative of vind (tangential) at blade 1, node 11, m/s/s
        167   -1.112872582369E+000                                                     T               2         AD First time derivative of vind (axial) at blade 1, node 12, m/s/s
        168    1.418198975175E-001                                                     T               2         AD First time derivative of vind (tangential) at blade 1, node 12, m/s/s
        169   -1.055189338835E+000                                                     T               2         AD First time derivative of vind (axial) at blade 1, node 13, m/s/s
        170    1.254253569719E-001                                                     T               2         AD First time derivative of vind (tangential) at blade 1, node 13, m/s/s