
Linearized model: Predictions were generated on 09-Dec-2025 at 22:30:58 using OpenFAST, compiled on Dec 09 2025 at 16:55:56 as a 64-bit application using double precision at commit v4.1.2-740-g10f0c46b-dirty
 linked with  NWTC Subroutine Library; ElastoDyn; InflowWind; AeroDyn; ServoDyn

Description from the FAST input file: NREL 5.0 MW Baseline Wind Turbine (Onshore), Linearization with AeroDyn + ED

Simulation information:
   Simulation time:                    58.8100 s
   Rotor Speed:                         1.0002 rad/s
   Azimuth:                             4.1975 rad
   Wind Speed:                          8.0000 m/s
   Number of continuous states:       258
   Number of discrete states:           0
   Number of constraint states:         0
   Number of inputs:                   72
   Number of outputs:                   5
   Jacobians included in this file?    No

Order of continuous states:
   Row/Column Operating Point                                                   Rotating Frame? Derivative Order Description
   ---------- ---------------                                                   --------------- ---------------- -----------
          1    2.082698199055E-001                                                     F               2         ED 1st tower fore-aft bending mode DOF (internal DOF index = DOF_TFA1), m
          2    2.476298885405E-002                                                     F               2         ED 1st tower side-to-side bending mode DOF (internal DOF index = DOF_TSS1), m
          3   -7.237082303087E-005                                                     F               2         ED 2nd tower fore-aft bending mode DOF (internal DOF index = DOF_TFA2), m
          4    1.396352141037E-004                                                     F               2         ED 2nd tower side-to-side bending mode DOF (internal DOF index = DOF_TSS2), m
          5    2.624549743776E+000                                                     F               2         ED Variable speed generator DOF (internal DOF index = DOF_GeAz), rad
          6    2.182250324656E-003                                                     F               2         ED Drivetrain rotational-flexibility DOF (internal DOF index = DOF_DrTr), rad
          7    3.047961476903E+000                                                     T               2         ED 1st flapwise bending-mode DOF of blade 1 (internal DOF index = DOF_BF(1,1)), m
          8    3.177506806142E+000                                                     T               2         ED 1st flapwise bending-mode DOF of blade 2 (internal DOF index = DOF_BF(2,1)), m
          9    3.352075551719E+000                                                     T               2         ED 1st flapwise bending-mode DOF of blade 3 (internal DOF index = DOF_BF(3,1)), m
         10    4.968047587727E-001                                                     T               2         ED 1st edgewise bending-mode DOF of blade 1 (internal DOF index = DOF_BE(1,1)), m
         11    8.064313801080E-002                                                     T               2         ED 1st edgewise bending-mode DOF of blade 2 (internal DOF index = DOF_BE(2,1)), m
         12   -3.098845832011E-001                                                     T               2         ED 1st edgewise bending-mode DOF of blade 3 (internal DOF index = DOF_BE(3,1)), m
         13    8.548235223781E-002                                                     T               2         ED 2nd flapwise bending-mode DOF of blade 1 (internal DOF index = DOF_BF(1,2)), m
         14    5.545825200816E-002                                                     T               2         ED 2nd flapwise bending-mode DOF of blade 2 (internal DOF index = DOF_BF(2,2)), m
         15   -8.399542072229E-003                                                     T               2         ED 2nd flapwise bending-mode DOF of blade 3 (internal DOF index = DOF_BF(3,2)), m
         16    1.358527546515E-004                                                     F               2         ED First time derivative of 1st tower fore-aft bending mode DOF (internal DOF index = DOF_TFA1), m/s
         17    4.284301313525E-003                                                     F               2         ED First time derivative of 1st tower side-to-side bending mode DOF (internal DOF index = DOF_TSS1), m/s
         18   -2.679514424986E-005                                                     F               2         ED First time derivative of 2nd tower fore-aft bending mode DOF (internal DOF index = DOF_TFA2), m/s
         19   -4.384931271509E-005                                                     F               2         ED First time derivative of 2nd tower side-to-side bending mode DOF (internal DOF index = DOF_TSS2), m/s
         20    1.000275218145E+000                                                     F               2         ED First time derivative of Variable speed generator DOF (internal DOF index = DOF_GeAz), rad/s
         21   -9.887756489397E-005                                                     F               2         ED First time derivative of Drivetrain rotational-flexibility DOF (internal DOF index = DOF_DrTr), rad/s
         22   -1.352288845099E-001                                                     T               2         ED First time derivative of 1st flapwise bending-mode DOF of blade 1 (internal DOF index = DOF_BF(1,1)), m/s
         23    2.082012512655E-001                                                     T               2         ED First time derivative of 1st flapwise bending-mode DOF of blade 2 (internal DOF index = DOF_BF(2,1)), m/s
         24   -1.095038787449E-001                                                     T               2         ED First time derivative of 1st flapwise bending-mode DOF of blade 3 (internal DOF index = DOF_BF(3,1)), m/s
         25    2.355865077129E-001                                                     T               2         ED First time derivative of 1st edgewise bending-mode DOF of blade 1 (internal DOF index = DOF_BE(1,1)), m/s
         26   -5.022748688905E-001                                                     T               2         ED First time derivative of 1st edgewise bending-mode DOF of blade 2 (internal DOF index = DOF_BE(2,1)), m/s
         27    2.798460786634E-001                                                     T               2         ED First time derivative of 1st edgewise bending-mode DOF of blade 3 (internal DOF index = DOF_BE(3,1)), m/s
         28    8.739432732937E-002                                                     T               2         ED First time derivative of 2nd flapwise bending-mode DOF of blade 1 (internal DOF index = DOF_BF(1,2)), m/s
         29   -6.471205334782E-002                                                     T               2         ED First time derivative of 2nd flapwise bending-mode DOF of blade 2 (internal DOF index = DOF_BF(2,2)), m/s
         30    2.170750928267E-002                                                     T               2         ED First time derivative of 2nd flapwise bending-mode DOF of blade 3 (internal DOF index = DOF_BF(3,2)), m/s
         31   -7.545096505075E+000                                                     T               2         AD vind (axial) at blade 1, node 1, m/s
         32    0.000000000000E+000                                                     T               2         AD vind (tangential) at blade 1, node 1, m/s
         33    0.000000000000E+000                                                     T               2         AD vind (axial) at blade 1, node 2, m/s
         34    0.000000000000E+000                                                     T               2         AD vind (tangential) at blade 1, node 2, m/s
         35    0.000000000000E+000                                                     T               2         AD vind (axial) at blade 1, node 3, m/s
         36    0.000000000000E+000                                                     T               2         AD vind (tangential) at blade 1, node 3, m/s
         37    0.000000000000E+000                                                     T               2         AD vind (axial) at blade 1, node 4, m/s
         38    0.000000000000E+000                                                     T               2         AD vind (tangential) at blade 1, node 4, m/s
         39   -2.006256727784E+000                                                     T               2         AD vind (axial) at blade 1, node 5, m/s
         40    9.398709250310E-001                                                     T               2         AD vind (tangential) at blade 1, node 5, m/s
         41   -2.165552759971E+000                                                     T               2         AD vind (axial) at blade 1, node 6, m/s
         42    7.594436067948E-001                                                     T               2         AD vind (tangential) at blade 1, node 6, m/s
         43   -1.989549917064E+000                                                     T               2         AD vind (axial) at blade 1, node 7, m/s
         44    5.825685019683E-001                                                     T               2         AD vind (tangential) at blade 1, node 7, m/s
         45   -1.978044397793E+000                                                     T               2         AD vind (axial) at blade 1, node 8, m/s
         46    4.859701070539E-001                                                     T               2         AD vind (tangential) at blade 1, node 8, m/s
         47   -2.214694435801E+000                                                     T               2         AD vind (axial) at blade 1, node 9, m/s
         48    4.485010006291E-001                                                     T               2         AD vind (tangential) at blade 1, node 9, m/s
         49   -2.288851633378E+000                                                     T               2         AD vind (axial) at blade 1, node 10, m/s
         50    4.007484377113E-001                                                     T               2         AD vind (tangential) at blade 1, node 10, m/s
         51   -2.569420066262E+000                                                     T               2         AD vind (axial) at blade 1, node 11, m/s
         52    3.799967034480E-001                                                     T               2         AD vind (tangential) at blade 1, node 11, m/s
         53   -2.767996945325E+000                                                     T               2         AD vind (axial) at blade 1, node 12, m/s
         54    3.545910439575E-001                                                     T               2         AD vind (tangential) at blade 1, node 12, m/s
         55   -2.622685023372E+000                                                     T               2         AD vind (axial) at blade 1, node 13, m/s
         56    3.136140450337E-001                                                     T               2         AD vind (tangential) at blade 1, node 13, m/s
         57   -2.734765612696E+000                                                     T               2         AD vind (axial) at blade 1, node 14, m/s
         58    2.928086535915E-001                                                     T               2         AD vind (tangential) at blade 1, node 14, m/s
         59   -2.893661710385E+000                                                     T               2         AD vind (axial) at blade 1, node 15, m/s
         60    2.765434457158E-001                                                     T               2         AD vind (tangential) at blade 1, node 15, m/s
         61   -3.148731423316E+000                                                     T               2         AD vind (axial) at blade 1, node 16, m/s
         62    2.680320086636E-001                                                     T               2         AD vind (tangential) at blade 1, node 16, m/s
         63   -3.463596784304E+000                                                     T               2         AD vind (axial) at blade 1, node 17, m/s
         64    2.651615006252E-001                                                     T               2         AD vind (tangential) at blade 1, node 17, m/s
         65   -3.614643883374E+000                                                     T               2         AD vind (axial) at blade 1, node 18, m/s
         66    2.610957792072E-001                                                     T               2         AD vind (tangential) at blade 1, node 18, m/s
         67   -7.911683691845E+000                                                     T               2         AD vind (axial) at blade 1, node 19, m/s
         68    0.000000000000E+000                                                     T               2         AD vind (tangential) at blade 1, node 19, m/s
         69   -7.783178789649E+000                                                     T               2         AD vind (axial) at blade 2, node 1, m/s
         70    0.000000000000E+000                                                     T               2         AD vind (tangential) at blade 2, node 1, m/s
         71    0.000000000000E+000                                                     T               2         AD vind (axial) at blade 2, node 2, m/s
         72    0.000000000000E+000                                                     T               2         AD vind (tangential) at blade 2, node 2, m/s
         73    0.000000000000E+000                                                     T               2         AD vind (axial) at blade 2, node 3, m/s
         74    0.000000000000E+000                                                     T               2         AD vind (tangential) at blade 2, node 3, m/s
         75    0.000000000000E+000                                                     T               2         AD vind (axial) at blade 2, node 4, m/s
         76    0.000000000000E+000                                                     T               2         AD vind (tangential) at blade 2, node 4, m/s
         77   -2.015820018078E+000                                                     T               2         AD vind (axial) at blade 2, node 5, m/s
         78    9.496234055956E-001                                                     T               2         AD vind (tangential) at blade 2, node 5, m/s
         79   -2.176724638377E+000                                                     T               2         AD vind (axial) at blade 2, node 6, m/s
         80    7.646810942286E-001                                                     T               2         AD vind (tangential) at blade 2, node 6, m/s
         81   -1.996911034327E+000                                                     T               2         AD vind (axial) at blade 2, node 7, m/s
         82    5.850857232989E-001                                                     T               2         AD vind (tangential) at blade 2, node 7, m/s
         83   -1.983123680100E+000                                                     T               2         AD vind (axial) at blade 2, node 8, m/s
         84    4.871340473385E-001                                                     T               2         AD vind (tangential) at blade 2, node 8, m/s
         85   -2.219525686145E+000                                                     T               2         AD vind (axial) at blade 2, node 9, m/s
         86    4.490077590871E-001                                                     T               2         AD vind (tangential) at blade 2, node 9, m/s
         87   -2.293883016230E+000                                                     T               2         AD vind (axial) at blade 2, node 10, m/s
         88    4.007823823531E-001                                                     T               2         AD vind (tangential) at blade 2, node 10, m/s
         89   -2.577164356192E+000                                                     T               2         AD vind (axial) at blade 2, node 11, m/s
         90    3.797755281643E-001                                                     T               2         AD vind (tangential) at blade 2, node 11, m/s
         91   -2.779859225110E+000                                                     T               2         AD vind (axial) at blade 2, node 12, m/s
         92    3.541691518692E-001                                                     T               2         AD vind (tangential) at blade 2, node 12, m/s
         93   -2.636787552384E+000                                                     T               2         AD vind (axial) at blade 2, node 13, m/s
         94    3.131293052405E-001                                                     T               2         AD vind (tangential) at blade 2, node 13, m/s
         95   -2.753677264509E+000                                                     T               2         AD vind (axial) at blade 2, node 14, m/s
         96    2.922460736185E-001                                                     T               2         AD vind (tangential) at blade 2, node 14, m/s
         97   -2.918053654714E+000                                                     T               2         AD vind (axial) at blade 2, node 15, m/s
         98    2.758489731955E-001                                                     T               2         AD vind (tangential) at blade 2, node 15, m/s
         99   -3.179669120970E+000                                                     T               2         AD vind (axial) at blade 2, node 16, m/s
        100    2.670415164693E-001                                                     T               2         AD vind (tangential) at blade 2, node 16, m/s
        101   -3.494767144978E+000                                                     T               2         AD vind (axial) at blade 2, node 17, m/s
        102    2.640221201260E-001                                                     T               2         AD vind (tangential) at blade 2, node 17, m/s
        103   -3.640743311318E+000                                                     T               2         AD vind (axial) at blade 2, node 18, m/s
        104    2.600586156289E-001                                                     T               2         AD vind (tangential) at blade 2, node 18, m/s
        105   -7.919883177554E+000                                                     T               2         AD vind (axial) at blade 2, node 19, m/s
        106    0.000000000000E+000                                                     T               2         AD vind (tangential) at blade 2, node 19, m/s
        107   -7.866890689999E+000                                                     T               2         AD vind (axial) at blade 3, node 1, m/s
        108    0.000000000000E+000                                                     T               2         AD vind (tangential) at blade 3, node 1, m/s
        109    0.000000000000E+000                                                     T               2         AD vind (axial) at blade 3, node 2, m/s
        110    0.000000000000E+000                                                     T               2         AD vind (tangential) at blade 3, node 2, m/s
        111    0.000000000000E+000                                                     T               2         AD vind (axial) at blade 3, node 3, m/s
        112    0.000000000000E+000                                                     T               2         AD vind (tangential) at blade 3, node 3, m/s
        113    0.000000000000E+000                                                     T               2         AD vind (axial) at blade 3, node 4, m/s
        114    0.000000000000E+000                                                     T               2         AD vind (tangential) at blade 3, node 4, m/s
        115   -2.024087455906E+000                                                     T               2         AD vind (axial) at blade 3, node 5, m/s
        116    9.548774182998E-001                                                     T               2         AD vind (tangential) at blade 3, node 5, m/s
        117   -2.183733971744E+000                                                     T               2         AD vind (axial) at blade 3, node 6, m/s
        118    7.677086240250E-001                                                     T               2         AD vind (tangential) at blade 3, node 6, m/s
        119   -2.001239814457E+000                                                     T               2         AD vind (axial) at blade 3, node 7, m/s
        120    5.866336199254E-001                                                     T               2         AD vind (tangential) at blade 3, node 7, m/s
        121   -1.985640442366E+000                                                     T               2         AD vind (axial) at blade 3, node 8, m/s
        122    4.879032185496E-001                                                     T               2         AD vind (tangential) at blade 3, node 8, m/s
        123   -2.220739912206E+000                                                     T               2         AD vind (axial) at blade 3, node 9, m/s
        124    4.493456374350E-001                                                     T               2         AD vind (tangential) at blade 3, node 9, m/s
        125   -2.293543077358E+000                                                     T               2         AD vind (axial) at blade 3, node 10, m/s
        126    4.007695063603E-001                                                     T               2         AD vind (tangential) at blade 3, node 10, m/s
        127   -2.575058508367E+000                                                     T               2         AD vind (axial) at blade 3, node 11, m/s
        128    3.795074395729E-001                                                     T               2         AD vind (tangential) at blade 3, node 11, m/s
        129   -2.775291284036E+000                                                     T               2         AD vind (axial) at blade 3, node 12, m/s
        130    3.536619941095E-001                                                     T               2         AD vind (tangential) at blade 3, node 12, m/s
        131   -2.629690808295E+000                                                     T               2         AD vind (axial) at blade 3, node 13, m/s
        132    3.123823561276E-001                                                     T               2         AD vind (tangential) at blade 3, node 13, m/s
        133   -2.742711010207E+000                                                     T               2         AD vind (axial) at blade 3, node 14, m/s
        134    2.913138254029E-001                                                     T               2         AD vind (tangential) at blade 3, node 14, m/s
        135   -2.902029607485E+000                                                     T               2         AD vind (axial) at blade 3, node 15, m/s
        136    2.748113660793E-001                                                     T               2         AD vind (tangential) at blade 3, node 15, m/s
        137   -3.158115312468E+000                                                     T               2         AD vind (axial) at blade 3, node 16, m/s
        138    2.660589489858E-001                                                     T               2         AD vind (tangential) at blade 3, node 16, m/s
        139   -3.472257892520E+000                                                     T               2         AD vind (axial) at blade 3, node 17, m/s
        140    2.630712985629E-001                                                     T               2         AD vind (tangential) at blade 3, node 17, m/s
        141   -3.620040719422E+000                                                     T               2         AD vind (axial) at blade 3, node 18, m/s
        142    2.592446708146E-001                                                     T               2         AD vind (tangential) at blade 3, node 18, m/s
        143   -7.913059113384E+000                                                     T               2         AD vind (axial) at blade 3, node 19, m/s
        144    0.000000000000E+000                                                     T               2         AD vind (tangential) at blade 3, node 19, m/s
        145   -3.040191801820E+000                                                     T               2         AD First time derivative of vind (axial) at blade 1, node 1, m/s/s
        146    0.000000000000E+000                                                     T               2         AD First time derivative of vind (tangential) at blade 1, node 1, m/s/s
        147    0.000000000000E+000                                                     T               2         AD First time derivative of vind (axial) at blade 1, node 2, m/s/s
        148    0.000000000000E+000                                                     T               2         AD First time derivative of vind (tangential) at blade 1, node 2, m/s/s
        149    0.000000000000E+000                                                     T               2         AD First time derivative of vind (axial) at blade 1, node 3, m/s/s
        150    0.000000000000E+000                                                     T               2         AD First time derivative of vind (tangential) at blade 1, node 3, m/s/s
        151    0.000000000000E+000                                                     T               2         AD First time derivative of vind (axial) at blade 1, node 4, m/s/s
        152    0.000000000000E+000                                                     T               2         AD First time derivative of vind (tangential) at blade 1, node 4, m/s/s
        153   -8.046155746376E-001                                                     T               2         AD First time derivative of vind (axial) at blade 1, node 5, m/s/s
        154    3.765823827727E-001                                                     T               2         AD First time derivative of vind (tangential) at blade 1, node 5, m/s/s
        155   -8.671321553249E-001                                                     T               2         AD First time derivative of vind (axial) at blade 1, node 6, m/s/s
        156    3.038881601970E-001                                                     T               2         AD First time derivative of vind (tangential) at blade 1, node 6, m/s/s
        157   -7.963168810747E-001                                                     T               2         AD First time derivative of vind (axial) at blade 1, node 7, m/s/s
        158    2.330229057948E-001                                                     T               2         AD First time derivative of vind (tangential) at blade 1, node 7, m/s/s
        159   -7.915406566304E-001                                                     T               2         AD First time derivative of vind (axial) at blade 1, node 8, m/s/s
        160    1.943307558064E-001                                                     T               2         AD First time derivative of vind (tangential) at blade 1, node 8, m/s/s
        161   -8.863010288282E-001                                                     T               2         AD First time derivative of vind (axial) at blade 1, node 9, m/s/s
        162    1.793239686359E-001                                                     T               2         AD First time derivative of vind (tangential) at blade 1, node 9, m/s/s
        163   -9.159793054177E-001                                                     T               2         AD First time derivative of vind (axial) at blade 1, node 10, m/s/s
        164    1.601924582014E-001                                                     T               2         AD First time derivative of vind (tangential) at blade 1, node 10, m/s/s
        165   -1.028559000169E+000                                                     T               2         AD First time derivative of vind (axial) at blade 1, node 11, m/s/s
        166    1.518736165990E-001                                                     T               2         AD First time derivative of vind (tangential) at blade 1, node 11, m/s/s
        167   -1.108398045183E+000                                                     T               2         AD First time derivative of vind (axial) at blade 1, node 12, m/s/s
        168    1.416873557964E-001                                                     T               2         AD First time derivative of vind (tangential) at blade 1, node 12, m/s/s
        169   -1.050381019571E+000                                                     T               2         AD First time derivative of vind (axial) at blade 1, node 13, m/s/s
        170    1.252877257084E-001                                                     T               2         AD First time derivative of vind (tangential) at blade 1, node 13, m/s/s