
Linearized model: Predictions were generated on 11-Oct-2025 at 16:01:34 using OpenFAST, compiled on Oct 10 2025 at 17:31:28 as a 64-bit application using double precision at commit v4.1.2-727-g39496902
 linked with  NWTC Subroutine Library; ElastoDyn; InflowWind; AeroDyn; ServoDyn

Description from the FAST input file: NREL 5.0 MW Baseline Wind Turbine (Onshore), Linearization with AeroDyn + ED

Simulation information:
   Simulation time:                    65.0900 s
   Rotor Speed:                         1.0001 rad/s
   Azimuth:                             4.1952 rad
   Wind Speed:                          8.0000 m/s
   Number of continuous states:       258
   Number of discrete states:           0
   Number of constraint states:         0
   Number of inputs:                   72
   Number of outputs:                   5
   Jacobians included in this file?    No

Order of continuous states:
   Row/Column Operating Point                                                   Rotating Frame? Derivative Order Description
   ---------- ---------------                                                   --------------- ---------------- -----------
          1    2.084374733916E-001                                                     F               2         ED 1st tower fore-aft bending mode DOF (internal DOF index = DOF_TFA1), m
          2    2.468398412526E-002                                                     F               2         ED 1st tower side-to-side bending mode DOF (internal DOF index = DOF_TSS1), m
          3   -7.223848275324E-005                                                     F               2         ED 2nd tower fore-aft bending mode DOF (internal DOF index = DOF_TFA2), m
          4    1.397809341530E-004                                                     F               2         ED 2nd tower side-to-side bending mode DOF (internal DOF index = DOF_TSS2), m
          5    2.622260748556E+000                                                     F               2         ED Variable speed generator DOF (internal DOF index = DOF_GeAz), rad
          6    2.182599337622E-003                                                     F               2         ED Drivetrain rotational-flexibility DOF (internal DOF index = DOF_DrTr), rad
          7    3.051271897062E+000                                                     T               2         ED 1st flapwise bending-mode DOF of blade 1 (internal DOF index = DOF_BF(1,1)), m
          8    3.179752438771E+000                                                     T               2         ED 1st flapwise bending-mode DOF of blade 2 (internal DOF index = DOF_BF(2,1)), m
          9    3.354504268255E+000                                                     T               2         ED 1st flapwise bending-mode DOF of blade 3 (internal DOF index = DOF_BF(3,1)), m
         10    4.962658482043E-001                                                     T               2         ED 1st edgewise bending-mode DOF of blade 1 (internal DOF index = DOF_BE(1,1)), m
         11    8.168577696985E-002                                                     T               2         ED 1st edgewise bending-mode DOF of blade 2 (internal DOF index = DOF_BE(2,1)), m
         12   -3.106328525419E-001                                                     T               2         ED 1st edgewise bending-mode DOF of blade 3 (internal DOF index = DOF_BE(3,1)), m
         13    8.535810013387E-002                                                     T               2         ED 2nd flapwise bending-mode DOF of blade 1 (internal DOF index = DOF_BF(1,2)), m
         14    5.570864808550E-002                                                     T               2         ED 2nd flapwise bending-mode DOF of blade 2 (internal DOF index = DOF_BF(2,2)), m
         15   -8.348669374462E-003                                                     T               2         ED 2nd flapwise bending-mode DOF of blade 3 (internal DOF index = DOF_BF(3,2)), m
         16    1.221740075367E-004                                                     F               2         ED First time derivative of 1st tower fore-aft bending mode DOF (internal DOF index = DOF_TFA1), m/s
         17    2.786187411893E-003                                                     F               2         ED First time derivative of 1st tower side-to-side bending mode DOF (internal DOF index = DOF_TSS1), m/s
         18   -2.804000053637E-005                                                     F               2         ED First time derivative of 2nd tower fore-aft bending mode DOF (internal DOF index = DOF_TFA2), m/s
         19   -4.107383948532E-005                                                     F               2         ED First time derivative of 2nd tower side-to-side bending mode DOF (internal DOF index = DOF_TSS2), m/s
         20    1.000229253521E+000                                                     F               2         ED First time derivative of Variable speed generator DOF (internal DOF index = DOF_GeAz), rad/s
         21   -8.859962361488E-005                                                     F               2         ED First time derivative of Drivetrain rotational-flexibility DOF (internal DOF index = DOF_DrTr), rad/s
         22   -1.345068763608E-001                                                     T               2         ED First time derivative of 1st flapwise bending-mode DOF of blade 1 (internal DOF index = DOF_BF(1,1)), m/s
         23    2.075822798210E-001                                                     T               2         ED First time derivative of 1st flapwise bending-mode DOF of blade 2 (internal DOF index = DOF_BF(2,1)), m/s
         24   -1.089842439972E-001                                                     T               2         ED First time derivative of 1st flapwise bending-mode DOF of blade 3 (internal DOF index = DOF_BF(3,1)), m/s
         25    2.386939937445E-001                                                     T               2         ED First time derivative of 1st edgewise bending-mode DOF of blade 1 (internal DOF index = DOF_BE(1,1)), m/s
         26   -5.021529330375E-001                                                     T               2         ED First time derivative of 1st edgewise bending-mode DOF of blade 2 (internal DOF index = DOF_BE(2,1)), m/s
         27    2.787207590899E-001                                                     T               2         ED First time derivative of 1st edgewise bending-mode DOF of blade 3 (internal DOF index = DOF_BE(3,1)), m/s
         28    8.748323262152E-002                                                     T               2         ED First time derivative of 2nd flapwise bending-mode DOF of blade 1 (internal DOF index = DOF_BF(1,2)), m/s
         29   -6.445736895830E-002                                                     T               2         ED First time derivative of 2nd flapwise bending-mode DOF of blade 2 (internal DOF index = DOF_BF(2,2)), m/s
         30    2.182583148939E-002                                                     T               2         ED First time derivative of 2nd flapwise bending-mode DOF of blade 3 (internal DOF index = DOF_BF(3,2)), m/s
         31   -7.544877824622E+000                                                     T               2         AD vind (axial) at blade 1, node 1, m/s
         32    0.000000000000E+000                                                     T               2         AD vind (tangential) at blade 1, node 1, m/s
         33    0.000000000000E+000                                                     T               2         AD vind (axial) at blade 1, node 2, m/s
         34    0.000000000000E+000                                                     T               2         AD vind (tangential) at blade 1, node 2, m/s
         35    0.000000000000E+000                                                     T               2         AD vind (axial) at blade 1, node 3, m/s
         36    0.000000000000E+000                                                     T               2         AD vind (tangential) at blade 1, node 3, m/s
         37    0.000000000000E+000                                                     T               2         AD vind (axial) at blade 1, node 4, m/s
         38    0.000000000000E+000                                                     T               2         AD vind (tangential) at blade 1, node 4, m/s
         39   -2.006879109413E+000                                                     T               2         AD vind (axial) at blade 1, node 5, m/s
         40    9.401307682612E-001                                                     T               2         AD vind (tangential) at blade 1, node 5, m/s
         41   -2.167436002808E+000                                                     T               2         AD vind (axial) at blade 1, node 6, m/s
         42    7.599192257766E-001                                                     T               2         AD vind (tangential) at blade 1, node 6, m/s
         43   -1.991778328940E+000                                                     T               2         AD vind (axial) at blade 1, node 7, m/s
         44    5.830595206122E-001                                                     T               2         AD vind (tangential) at blade 1, node 7, m/s
         45   -1.980598980299E+000                                                     T               2         AD vind (axial) at blade 1, node 8, m/s
         46    4.864408454628E-001                                                     T               2         AD vind (tangential) at blade 1, node 8, m/s
         47   -2.217590553049E+000                                                     T               2         AD vind (axial) at blade 1, node 9, m/s
         48    4.489099459313E-001                                                     T               2         AD vind (tangential) at blade 1, node 9, m/s
         49   -2.292087110022E+000                                                     T               2         AD vind (axial) at blade 1, node 10, m/s
         50    4.011294671513E-001                                                     T               2         AD vind (tangential) at blade 1, node 10, m/s
         51   -2.573067726309E+000                                                     T               2         AD vind (axial) at blade 1, node 11, m/s
         52    3.803185011689E-001                                                     T               2         AD vind (tangential) at blade 1, node 11, m/s
         53   -2.772119167962E+000                                                     T               2         AD vind (axial) at blade 1, node 12, m/s
         54    3.548712075836E-001                                                     T               2         AD vind (tangential) at blade 1, node 12, m/s
         55   -2.626685281463E+000                                                     T               2         AD vind (axial) at blade 1, node 13, m/s
         56    3.138840168323E-001                                                     T               2         AD vind (tangential) at blade 1, node 13, m/s
         57   -2.739063641059E+000                                                     T               2         AD vind (axial) at blade 1, node 14, m/s
         58    2.930492407165E-001                                                     T               2         AD vind (tangential) at blade 1, node 14, m/s
         59   -2.898278590261E+000                                                     T               2         AD vind (axial) at blade 1, node 15, m/s
         60    2.767492629327E-001                                                     T               2         AD vind (tangential) at blade 1, node 15, m/s
         61   -3.153707714139E+000                                                     T               2         AD vind (axial) at blade 1, node 16, m/s
         62    2.681967981498E-001                                                     T               2         AD vind (tangential) at blade 1, node 16, m/s
         63   -3.468057430127E+000                                                     T               2         AD vind (axial) at blade 1, node 17, m/s
         64    2.653231688804E-001                                                     T               2         AD vind (tangential) at blade 1, node 17, m/s
         65   -3.618207647885E+000                                                     T               2         AD vind (axial) at blade 1, node 18, m/s
         66    2.612689246052E-001                                                     T               2         AD vind (tangential) at blade 1, node 18, m/s
         67   -7.911113044836E+000                                                     T               2         AD vind (axial) at blade 1, node 19, m/s
         68    0.000000000000E+000                                                     T               2         AD vind (tangential) at blade 1, node 19, m/s
         69   -7.783030031507E+000                                                     T               2         AD vind (axial) at blade 2, node 1, m/s
         70    0.000000000000E+000                                                     T               2         AD vind (tangential) at blade 2, node 1, m/s
         71    0.000000000000E+000                                                     T               2         AD vind (axial) at blade 2, node 2, m/s
         72    0.000000000000E+000                                                     T               2         AD vind (tangential) at blade 2, node 2, m/s
         73    0.000000000000E+000                                                     T               2         AD vind (axial) at blade 2, node 3, m/s
         74    0.000000000000E+000                                                     T               2         AD vind (tangential) at blade 2, node 3, m/s
         75    0.000000000000E+000                                                     T               2         AD vind (axial) at blade 2, node 4, m/s
         76    0.000000000000E+000                                                     T               2         AD vind (tangential) at blade 2, node 4, m/s
         77   -2.016341742668E+000                                                     T               2         AD vind (axial) at blade 2, node 5, m/s
         78    9.499059640359E-001                                                     T               2         AD vind (tangential) at blade 2, node 5, m/s
         79   -2.178651419766E+000                                                     T               2         AD vind (axial) at blade 2, node 6, m/s
         80    7.651981951379E-001                                                     T               2         AD vind (tangential) at blade 2, node 6, m/s
         81   -1.999173127818E+000                                                     T               2         AD vind (axial) at blade 2, node 7, m/s
         82    5.856033552328E-001                                                     T               2         AD vind (tangential) at blade 2, node 7, m/s
         83   -1.985714290626E+000                                                     T               2         AD vind (axial) at blade 2, node 8, m/s
         84    4.876256266859E-001                                                     T               2         AD vind (tangential) at blade 2, node 8, m/s
         85   -2.222443730372E+000                                                     T               2         AD vind (axial) at blade 2, node 9, m/s
         86    4.494331345819E-001                                                     T               2         AD vind (tangential) at blade 2, node 9, m/s
         87   -2.297147174248E+000                                                     T               2         AD vind (axial) at blade 2, node 10, m/s
         88    4.011789699394E-001                                                     T               2         AD vind (tangential) at blade 2, node 10, m/s
         89   -2.580827940134E+000                                                     T               2         AD vind (axial) at blade 2, node 11, m/s
         90    3.801116560581E-001                                                     T               2         AD vind (tangential) at blade 2, node 11, m/s
         91   -2.784009930979E+000                                                     T               2         AD vind (axial) at blade 2, node 12, m/s
         92    3.544648120995E-001                                                     T               2         AD vind (tangential) at blade 2, node 12, m/s
         93   -2.640804167986E+000                                                     T               2         AD vind (axial) at blade 2, node 13, m/s
         94    3.134138045740E-001                                                     T               2         AD vind (tangential) at blade 2, node 13, m/s
         95   -2.757997010222E+000                                                     T               2         AD vind (axial) at blade 2, node 14, m/s
         96    2.925020300479E-001                                                     T               2         AD vind (tangential) at blade 2, node 14, m/s
         97   -2.922708337811E+000                                                     T               2         AD vind (axial) at blade 2, node 15, m/s
         98    2.760715995995E-001                                                     T               2         AD vind (tangential) at blade 2, node 15, m/s
         99   -3.184717134862E+000                                                     T               2         AD vind (axial) at blade 2, node 16, m/s
        100    2.672263589906E-001                                                     T               2         AD vind (tangential) at blade 2, node 16, m/s
        101   -3.499241556974E+000                                                     T               2         AD vind (axial) at blade 2, node 17, m/s
        102    2.642113686753E-001                                                     T               2         AD vind (tangential) at blade 2, node 17, m/s
        103   -3.644372908239E+000                                                     T               2         AD vind (axial) at blade 2, node 18, m/s
        104    2.602646253033E-001                                                     T               2         AD vind (tangential) at blade 2, node 18, m/s
        105   -7.919930781777E+000                                                     T               2         AD vind (axial) at blade 2, node 19, m/s
        106    0.000000000000E+000                                                     T               2         AD vind (tangential) at blade 2, node 19, m/s
        107   -7.867077302684E+000                                                     T               2         AD vind (axial) at blade 3, node 1, m/s
        108    0.000000000000E+000                                                     T               2         AD vind (tangential) at blade 3, node 1, m/s
        109    0.000000000000E+000                                                     T               2         AD vind (axial) at blade 3, node 2, m/s
        110    0.000000000000E+000                                                     T               2         AD vind (tangential) at blade 3, node 2, m/s
        111    0.000000000000E+000                                                     T               2         AD vind (axial) at blade 3, node 3, m/s
        112    0.000000000000E+000                                                     T               2         AD vind (tangential) at blade 3, node 3, m/s
        113    0.000000000000E+000                                                     T               2         AD vind (axial) at blade 3, node 4, m/s
        114    0.000000000000E+000                                                     T               2         AD vind (tangential) at blade 3, node 4, m/s
        115   -2.024658292779E+000                                                     T               2         AD vind (axial) at blade 3, node 5, m/s
        116    9.551437743811E-001                                                     T               2         AD vind (tangential) at blade 3, node 5, m/s
        117   -2.185648122145E+000                                                     T               2         AD vind (axial) at blade 3, node 6, m/s
        118    7.681983399073E-001                                                     T               2         AD vind (tangential) at blade 3, node 6, m/s
        119   -2.003489608966E+000                                                     T               2         AD vind (axial) at blade 3, node 7, m/s
        120    5.871316161270E-001                                                     T               2         AD vind (tangential) at blade 3, node 7, m/s
        121   -1.988223423848E+000                                                     T               2         AD vind (axial) at blade 3, node 8, m/s
        122    4.883800935430E-001                                                     T               2         AD vind (tangential) at blade 3, node 8, m/s
        123   -2.223665131812E+000                                                     T               2         AD vind (axial) at blade 3, node 9, m/s
        124    4.497597121795E-001                                                     T               2         AD vind (tangential) at blade 3, node 9, m/s
        125   -2.296822722397E+000                                                     T               2         AD vind (axial) at blade 3, node 10, m/s
        126    4.011568544406E-001                                                     T               2         AD vind (tangential) at blade 3, node 10, m/s
        127   -2.578757970172E+000                                                     T               2         AD vind (axial) at blade 3, node 11, m/s
        128    3.798355539932E-001                                                     T               2         AD vind (tangential) at blade 3, node 11, m/s
        129   -2.779497601829E+000                                                     T               2         AD vind (axial) at blade 3, node 12, m/s
        130    3.539506023606E-001                                                     T               2         AD vind (tangential) at blade 3, node 12, m/s
        131   -2.633762131619E+000                                                     T               2         AD vind (axial) at blade 3, node 13, m/s
        132    3.126606992138E-001                                                     T               2         AD vind (tangential) at blade 3, node 13, m/s
        133   -2.747095244826E+000                                                     T               2         AD vind (axial) at blade 3, node 14, m/s
        134    2.915640071447E-001                                                     T               2         AD vind (tangential) at blade 3, node 14, m/s
        135   -2.906758160754E+000                                                     T               2         AD vind (axial) at blade 3, node 15, m/s
        136    2.750282723224E-001                                                     T               2         AD vind (tangential) at blade 3, node 15, m/s
        137   -3.163279296598E+000                                                     T               2         AD vind (axial) at blade 3, node 16, m/s
        138    2.662361218683E-001                                                     T               2         AD vind (tangential) at blade 3, node 16, m/s
        139   -3.476848222268E+000                                                     T               2         AD vind (axial) at blade 3, node 17, m/s
        140    2.632518429067E-001                                                     T               2         AD vind (tangential) at blade 3, node 17, m/s
        141   -3.623754790265E+000                                                     T               2         AD vind (axial) at blade 3, node 18, m/s
        142    2.594418034690E-001                                                     T               2         AD vind (tangential) at blade 3, node 18, m/s
        143   -7.913060721409E+000                                                     T               2         AD vind (axial) at blade 3, node 19, m/s
        144    0.000000000000E+000                                                     T               2         AD vind (tangential) at blade 3, node 19, m/s
        145   -3.040153389792E+000                                                     T               2         AD First time derivative of vind (axial) at blade 1, node 1, m/s/s
        146    0.000000000000E+000                                                     T               2         AD First time derivative of vind (tangential) at blade 1, node 1, m/s/s
        147    0.000000000000E+000                                                     T               2         AD First time derivative of vind (axial) at blade 1, node 2, m/s/s
        148    0.000000000000E+000                                                     T               2         AD First time derivative of vind (tangential) at blade 1, node 2, m/s/s
        149    0.000000000000E+000                                                     T               2         AD First time derivative of vind (axial) at blade 1, node 3, m/s/s
        150    0.000000000000E+000                                                     T               2         AD First time derivative of vind (tangential) at blade 1, node 3, m/s/s
        151    0.000000000000E+000                                                     T               2         AD First time derivative of vind (axial) at blade 1, node 4, m/s/s
        152    0.000000000000E+000                                                     T               2         AD First time derivative of vind (tangential) at blade 1, node 4, m/s/s
        153   -8.048357003494E-001                                                     T               2         AD First time derivative of vind (axial) at blade 1, node 5, m/s/s
        154    3.766945743634E-001                                                     T               2         AD First time derivative of vind (tangential) at blade 1, node 5, m/s/s
        155   -8.678920951737E-001                                                     T               2         AD First time derivative of vind (axial) at blade 1, node 6, m/s/s
        156    3.040926033353E-001                                                     T               2         AD First time derivative of vind (tangential) at blade 1, node 6, m/s/s
        157   -7.972151492344E-001                                                     T               2         AD First time derivative of vind (axial) at blade 1, node 7, m/s/s
        158    2.332303855503E-001                                                     T               2         AD First time derivative of vind (tangential) at blade 1, node 7, m/s/s
        159   -7.925674114183E-001                                                     T               2         AD First time derivative of vind (axial) at blade 1, node 8, m/s/s
        160    1.945281489360E-001                                                     T               2         AD First time derivative of vind (tangential) at blade 1, node 8, m/s/s
        161   -8.874525315442E-001                                                     T               2         AD First time derivative of vind (axial) at blade 1, node 9, m/s/s
        162    1.794946850092E-001                                                     T               2         AD First time derivative of vind (tangential) at blade 1, node 9, m/s/s
        163   -9.172617849960E-001                                                     T               2         AD First time derivative of vind (axial) at blade 1, node 10, m/s/s
        164    1.603511792453E-001                                                     T               2         AD First time derivative of vind (tangential) at blade 1, node 10, m/s/s
        165   -1.029988364907E+000                                                     T               2         AD First time derivative of vind (axial) at blade 1, node 11, m/s/s
        166    1.520077015215E-001                                                     T               2         AD First time derivative of vind (tangential) at blade 1, node 11, m/s/s
        167   -1.110003810784E+000                                                     T               2         AD First time derivative of vind (axial) at blade 1, node 12, m/s/s
        168    1.418046154312E-001                                                     T               2         AD First time derivative of vind (tangential) at blade 1, node 12, m/s/s
        169   -1.051931789655E+000                                                     T               2         AD First time derivative of vind (axial) at blade 1, node 13, m/s/s
        170    1.254002122632E-001                                                     T               2         AD First time derivative of vind (tangential) at blade 1, node 13, m/s/s