
Linearized model: Predictions were generated on 11-Oct-2025 at 16:01:34 using OpenFAST, compiled on Oct 10 2025 at 17:31:28 as a 64-bit application using double precision at commit v4.1.2-727-g39496902
 linked with  NWTC Subroutine Library; ElastoDyn; InflowWind; AeroDyn; ServoDyn

Description from the FAST input file: NREL 5.0 MW Baseline Wind Turbine (Onshore), Linearization with AeroDyn + ED

Simulation information:
   Simulation time:                    60.9000 s
   Rotor Speed:                         1.0002 rad/s
   Azimuth:                             0.0048 rad
   Wind Speed:                          8.0000 m/s
   Number of continuous states:       258
   Number of discrete states:           0
   Number of constraint states:         0
   Number of inputs:                   72
   Number of outputs:                   5
   Jacobians included in this file?    No

Order of continuous states:
   Row/Column Operating Point                                                   Rotating Frame? Derivative Order Description
   ---------- ---------------                                                   --------------- ---------------- -----------
          1    2.083947234078E-001                                                     F               2         ED 1st tower fore-aft bending mode DOF (internal DOF index = DOF_TFA1), m
          2    1.827254355051E-002                                                     F               2         ED 1st tower side-to-side bending mode DOF (internal DOF index = DOF_TSS1), m
          3   -7.218415906511E-005                                                     F               2         ED 2nd tower fore-aft bending mode DOF (internal DOF index = DOF_TFA2), m
          4    1.421238751629E-004                                                     F               2         ED 2nd tower side-to-side bending mode DOF (internal DOF index = DOF_TSS2), m
          5    4.714986014737E+000                                                     F               2         ED Variable speed generator DOF (internal DOF index = DOF_GeAz), rad
          6    2.180427152520E-003                                                     F               2         ED Drivetrain rotational-flexibility DOF (internal DOF index = DOF_DrTr), rad
          7    3.178604055631E+000                                                     T               2         ED 1st flapwise bending-mode DOF of blade 1 (internal DOF index = DOF_BF(1,1)), m
          8    3.353733466390E+000                                                     T               2         ED 1st flapwise bending-mode DOF of blade 2 (internal DOF index = DOF_BF(2,1)), m
          9    3.052986629980E+000                                                     T               2         ED 1st flapwise bending-mode DOF of blade 3 (internal DOF index = DOF_BF(3,1)), m
         10    8.408543867559E-002                                                     T               2         ED 1st edgewise bending-mode DOF of blade 1 (internal DOF index = DOF_BE(1,1)), m
         11   -3.116690283580E-001                                                     T               2         ED 1st edgewise bending-mode DOF of blade 2 (internal DOF index = DOF_BE(2,1)), m
         12    4.951574680091E-001                                                     T               2         ED 1st edgewise bending-mode DOF of blade 3 (internal DOF index = DOF_BE(3,1)), m
         13    5.602400876411E-002                                                     T               2         ED 2nd flapwise bending-mode DOF of blade 1 (internal DOF index = DOF_BF(1,2)), m
         14   -8.498147233745E-003                                                     T               2         ED 2nd flapwise bending-mode DOF of blade 2 (internal DOF index = DOF_BF(2,2)), m
         15    8.514626720381E-002                                                     T               2         ED 2nd flapwise bending-mode DOF of blade 3 (internal DOF index = DOF_BF(3,2)), m
         16    1.660681650909E-004                                                     F               2         ED First time derivative of 1st tower fore-aft bending mode DOF (internal DOF index = DOF_TFA1), m/s
         17    1.855375791462E-003                                                     F               2         ED First time derivative of 1st tower side-to-side bending mode DOF (internal DOF index = DOF_TSS1), m/s
         18   -2.974100621920E-005                                                     F               2         ED First time derivative of 2nd tower fore-aft bending mode DOF (internal DOF index = DOF_TFA2), m/s
         19   -3.945804119079E-005                                                     F               2         ED First time derivative of 2nd tower side-to-side bending mode DOF (internal DOF index = DOF_TSS2), m/s
         20    1.000282911503E+000                                                     F               2         ED First time derivative of Variable speed generator DOF (internal DOF index = DOF_GeAz), rad/s
         21   -8.523835533019E-005                                                     F               2         ED First time derivative of Drivetrain rotational-flexibility DOF (internal DOF index = DOF_DrTr), rad/s
         22    2.059565474975E-001                                                     T               2         ED First time derivative of 1st flapwise bending-mode DOF of blade 1 (internal DOF index = DOF_BF(1,1)), m/s
         23   -1.039574209227E-001                                                     T               2         ED First time derivative of 1st flapwise bending-mode DOF of blade 2 (internal DOF index = DOF_BF(2,1)), m/s
         24   -1.374115636091E-001                                                     T               2         ED First time derivative of 1st flapwise bending-mode DOF of blade 3 (internal DOF index = DOF_BF(3,1)), m/s
         25   -5.010867542435E-001                                                     T               2         ED First time derivative of 1st edgewise bending-mode DOF of blade 1 (internal DOF index = DOF_BE(1,1)), m/s
         26    2.760568503823E-001                                                     T               2         ED First time derivative of 1st edgewise bending-mode DOF of blade 2 (internal DOF index = DOF_BE(2,1)), m/s
         27    2.426879410414E-001                                                     T               2         ED First time derivative of 1st edgewise bending-mode DOF of blade 3 (internal DOF index = DOF_BE(3,1)), m/s
         28   -6.432608578890E-002                                                     T               2         ED First time derivative of 2nd flapwise bending-mode DOF of blade 1 (internal DOF index = DOF_BF(1,2)), m/s
         29    2.190557154105E-002                                                     T               2         ED First time derivative of 2nd flapwise bending-mode DOF of blade 2 (internal DOF index = DOF_BF(2,2)), m/s
         30    8.779907377514E-002                                                     T               2         ED First time derivative of 2nd flapwise bending-mode DOF of blade 3 (internal DOF index = DOF_BF(3,2)), m/s
         31   -7.782974908342E+000                                                     T               2         AD vind (axial) at blade 1, node 1, m/s
         32    0.000000000000E+000                                                     T               2         AD vind (tangential) at blade 1, node 1, m/s
         33    0.000000000000E+000                                                     T               2         AD vind (axial) at blade 1, node 2, m/s
         34    0.000000000000E+000                                                     T               2         AD vind (tangential) at blade 1, node 2, m/s
         35    0.000000000000E+000                                                     T               2         AD vind (axial) at blade 1, node 3, m/s
         36    0.000000000000E+000                                                     T               2         AD vind (tangential) at blade 1, node 3, m/s
         37    0.000000000000E+000                                                     T               2         AD vind (axial) at blade 1, node 4, m/s
         38    0.000000000000E+000                                                     T               2         AD vind (tangential) at blade 1, node 4, m/s
         39   -2.015871878714E+000                                                     T               2         AD vind (axial) at blade 1, node 5, m/s
         40    9.499384987284E-001                                                     T               2         AD vind (tangential) at blade 1, node 5, m/s
         41   -2.178624446214E+000                                                     T               2         AD vind (axial) at blade 1, node 6, m/s
         42    7.652926296097E-001                                                     T               2         AD vind (tangential) at blade 1, node 6, m/s
         43   -1.999178324966E+000                                                     T               2         AD vind (axial) at blade 1, node 7, m/s
         44    5.856602597770E-001                                                     T               2         AD vind (tangential) at blade 1, node 7, m/s
         45   -1.985717551440E+000                                                     T               2         AD vind (axial) at blade 1, node 8, m/s
         46    4.876619977068E-001                                                     T               2         AD vind (tangential) at blade 1, node 8, m/s
         47   -2.222414865489E+000                                                     T               2         AD vind (axial) at blade 1, node 9, m/s
         48    4.494569210991E-001                                                     T               2         AD vind (tangential) at blade 1, node 9, m/s
         49   -2.297116503304E+000                                                     T               2         AD vind (axial) at blade 1, node 10, m/s
         50    4.011979900109E-001                                                     T               2         AD vind (tangential) at blade 1, node 10, m/s
         51   -2.580766524544E+000                                                     T               2         AD vind (axial) at blade 1, node 11, m/s
         52    3.801283583139E-001                                                     T               2         AD vind (tangential) at blade 1, node 11, m/s
         53   -2.783924872384E+000                                                     T               2         AD vind (axial) at blade 1, node 12, m/s
         54    3.544822667121E-001                                                     T               2         AD vind (tangential) at blade 1, node 12, m/s
         55   -2.640713367283E+000                                                     T               2         AD vind (axial) at blade 1, node 13, m/s
         56    3.134315338234E-001                                                     T               2         AD vind (tangential) at blade 1, node 13, m/s
         57   -2.757869625205E+000                                                     T               2         AD vind (axial) at blade 1, node 14, m/s
         58    2.925229870526E-001                                                     T               2         AD vind (tangential) at blade 1, node 14, m/s
         59   -2.922526254114E+000                                                     T               2         AD vind (axial) at blade 1, node 15, m/s
         60    2.760983434827E-001                                                     T               2         AD vind (tangential) at blade 1, node 15, m/s
         61   -3.184496704695E+000                                                     T               2         AD vind (axial) at blade 1, node 16, m/s
         62    2.672613238235E-001                                                     T               2         AD vind (tangential) at blade 1, node 16, m/s
         63   -3.499111253894E+000                                                     T               2         AD vind (axial) at blade 1, node 17, m/s
         64    2.642527522773E-001                                                     T               2         AD vind (tangential) at blade 1, node 17, m/s
         65   -3.644400220606E+000                                                     T               2         AD vind (axial) at blade 1, node 18, m/s
         66    2.603147562639E-001                                                     T               2         AD vind (tangential) at blade 1, node 18, m/s
         67   -7.920928628825E+000                                                     T               2         AD vind (axial) at blade 1, node 19, m/s
         68    0.000000000000E+000                                                     T               2         AD vind (tangential) at blade 1, node 19, m/s
         69   -7.867314046030E+000                                                     T               2         AD vind (axial) at blade 2, node 1, m/s
         70    0.000000000000E+000                                                     T               2         AD vind (tangential) at blade 2, node 1, m/s
         71    0.000000000000E+000                                                     T               2         AD vind (axial) at blade 2, node 2, m/s
         72    0.000000000000E+000                                                     T               2         AD vind (tangential) at blade 2, node 2, m/s
         73    0.000000000000E+000                                                     T               2         AD vind (axial) at blade 2, node 3, m/s
         74    0.000000000000E+000                                                     T               2         AD vind (tangential) at blade 2, node 3, m/s
         75    0.000000000000E+000                                                     T               2         AD vind (axial) at blade 2, node 4, m/s
         76    0.000000000000E+000                                                     T               2         AD vind (tangential) at blade 2, node 4, m/s
         77   -2.025036580147E+000                                                     T               2         AD vind (axial) at blade 2, node 5, m/s
         78    9.551347201503E-001                                                     T               2         AD vind (tangential) at blade 2, node 5, m/s
         79   -2.185700225510E+000                                                     T               2         AD vind (axial) at blade 2, node 6, m/s
         80    7.681184786125E-001                                                     T               2         AD vind (tangential) at blade 2, node 6, m/s
         81   -2.003509013733E+000                                                     T               2         AD vind (axial) at blade 2, node 7, m/s
         82    5.870703549164E-001                                                     T               2         AD vind (tangential) at blade 2, node 7, m/s
         83   -1.988249352108E+000                                                     T               2         AD vind (axial) at blade 2, node 8, m/s
         84    4.883331164015E-001                                                     T               2         AD vind (tangential) at blade 2, node 8, m/s
         85   -2.223762288965E+000                                                     T               2         AD vind (axial) at blade 2, node 9, m/s
         86    4.497264179917E-001                                                     T               2         AD vind (tangential) at blade 2, node 9, m/s
         87   -2.296943870408E+000                                                     T               2         AD vind (axial) at blade 2, node 10, m/s
         88    4.011294928505E-001                                                     T               2         AD vind (tangential) at blade 2, node 10, m/s
         89   -2.578969837910E+000                                                     T               2         AD vind (axial) at blade 2, node 11, m/s
         90    3.798136569057E-001                                                     T               2         AD vind (tangential) at blade 2, node 11, m/s
         91   -2.779775795962E+000                                                     T               2         AD vind (axial) at blade 2, node 12, m/s
         92    3.539301378996E-001                                                     T               2         AD vind (tangential) at blade 2, node 12, m/s
         93   -2.634045484672E+000                                                     T               2         AD vind (axial) at blade 2, node 13, m/s
         94    3.126433173784E-001                                                     T               2         AD vind (tangential) at blade 2, node 13, m/s
         95   -2.747427528437E+000                                                     T               2         AD vind (axial) at blade 2, node 14, m/s
         96    2.915459618696E-001                                                     T               2         AD vind (tangential) at blade 2, node 14, m/s
         97   -2.907142910295E+000                                                     T               2         AD vind (axial) at blade 2, node 15, m/s
         98    2.750069635517E-001                                                     T               2         AD vind (tangential) at blade 2, node 15, m/s
         99   -3.163710120246E+000                                                     T               2         AD vind (axial) at blade 2, node 16, m/s
        100    2.662079597341E-001                                                     T               2         AD vind (tangential) at blade 2, node 16, m/s
        101   -3.477193084324E+000                                                     T               2         AD vind (axial) at blade 2, node 17, m/s
        102    2.632185410527E-001                                                     T               2         AD vind (tangential) at blade 2, node 17, m/s
        103   -3.623930282727E+000                                                     T               2         AD vind (axial) at blade 2, node 18, m/s
        104    2.594015315083E-001                                                     T               2         AD vind (tangential) at blade 2, node 18, m/s
        105   -7.912395021976E+000                                                     T               2         AD vind (axial) at blade 2, node 19, m/s
        106    0.000000000000E+000                                                     T               2         AD vind (tangential) at blade 2, node 19, m/s
        107   -7.544573027999E+000                                                     T               2         AD vind (axial) at blade 3, node 1, m/s
        108    0.000000000000E+000                                                     T               2         AD vind (tangential) at blade 3, node 1, m/s
        109    0.000000000000E+000                                                     T               2         AD vind (axial) at blade 3, node 2, m/s
        110    0.000000000000E+000                                                     T               2         AD vind (tangential) at blade 3, node 2, m/s
        111    0.000000000000E+000                                                     T               2         AD vind (axial) at blade 3, node 3, m/s
        112    0.000000000000E+000                                                     T               2         AD vind (tangential) at blade 3, node 3, m/s
        113    0.000000000000E+000                                                     T               2         AD vind (axial) at blade 3, node 4, m/s
        114    0.000000000000E+000                                                     T               2         AD vind (tangential) at blade 3, node 4, m/s
        115   -2.007334792018E+000                                                     T               2         AD vind (axial) at blade 3, node 5, m/s
        116    9.399872114118E-001                                                     T               2         AD vind (tangential) at blade 3, node 5, m/s
        117   -2.167410844904E+000                                                     T               2         AD vind (axial) at blade 3, node 6, m/s
        118    7.597242817833E-001                                                     T               2         AD vind (tangential) at blade 3, node 6, m/s
        119   -1.991710765563E+000                                                     T               2         AD vind (axial) at blade 3, node 7, m/s
        120    5.829192906505E-001                                                     T               2         AD vind (tangential) at blade 3, node 7, m/s
        121   -1.980570614897E+000                                                     T               2         AD vind (axial) at blade 3, node 8, m/s
        122    4.863395627142E-001                                                     T               2         AD vind (tangential) at blade 3, node 8, m/s
        123   -2.217682906026E+000                                                     T               2         AD vind (axial) at blade 3, node 9, m/s
        124    4.488376299159E-001                                                     T               2         AD vind (tangential) at blade 3, node 9, m/s
        125   -2.292234445335E+000                                                     T               2         AD vind (axial) at blade 3, node 10, m/s
        126    4.010735636281E-001                                                     T               2         AD vind (tangential) at blade 3, node 10, m/s
        127   -2.573361364202E+000                                                     T               2         AD vind (axial) at blade 3, node 11, m/s
        128    3.802756175548E-001                                                     T               2         AD vind (tangential) at blade 3, node 11, m/s
        129   -2.772538625841E+000                                                     T               2         AD vind (axial) at blade 3, node 12, m/s
        130    3.548364036134E-001                                                     T               2         AD vind (tangential) at blade 3, node 12, m/s
        131   -2.627094900209E+000                                                     T               2         AD vind (axial) at blade 3, node 13, m/s
        132    3.138566973460E-001                                                     T               2         AD vind (tangential) at blade 3, node 13, m/s
        133   -2.739539412709E+000                                                     T               2         AD vind (axial) at blade 3, node 14, m/s
        134    2.930248842575E-001                                                     T               2         AD vind (tangential) at blade 3, node 14, m/s
        135   -2.898814837796E+000                                                     T               2         AD vind (axial) at blade 3, node 15, m/s
        136    2.767250749763E-001                                                     T               2         AD vind (tangential) at blade 3, node 15, m/s
        137   -3.154275547961E+000                                                     T               2         AD vind (axial) at blade 3, node 16, m/s
        138    2.681701268769E-001                                                     T               2         AD vind (tangential) at blade 3, node 16, m/s
        139   -3.468536516423E+000                                                     T               2         AD vind (axial) at blade 3, node 17, m/s
        140    2.652951092483E-001                                                     T               2         AD vind (tangential) at blade 3, node 17, m/s
        141   -3.618517159429E+000                                                     T               2         AD vind (axial) at blade 3, node 18, m/s
        142    2.612390476181E-001                                                     T               2         AD vind (tangential) at blade 3, node 18, m/s
        143   -7.910872343563E+000                                                     T               2         AD vind (axial) at blade 3, node 19, m/s
        144    0.000000000000E+000                                                     T               2         AD vind (tangential) at blade 3, node 19, m/s
        145   -3.101182130315E+000                                                     T               2         AD First time derivative of vind (axial) at blade 1, node 1, m/s/s
        146    0.000000000000E+000                                                     T               2         AD First time derivative of vind (tangential) at blade 1, node 1, m/s/s
        147    0.000000000000E+000                                                     T               2         AD First time derivative of vind (axial) at blade 1, node 2, m/s/s
        148    0.000000000000E+000                                                     T               2         AD First time derivative of vind (tangential) at blade 1, node 2, m/s/s
        149    0.000000000000E+000                                                     T               2         AD First time derivative of vind (axial) at blade 1, node 3, m/s/s
        150    0.000000000000E+000                                                     T               2         AD First time derivative of vind (tangential) at blade 1, node 3, m/s/s
        151    0.000000000000E+000                                                     T               2         AD First time derivative of vind (axial) at blade 1, node 4, m/s/s
        152    0.000000000000E+000                                                     T               2         AD First time derivative of vind (tangential) at blade 1, node 4, m/s/s
        153   -8.063517874026E-001                                                     T               2         AD First time derivative of vind (axial) at blade 1, node 5, m/s/s
        154    3.794136351101E-001                                                     T               2         AD First time derivative of vind (tangential) at blade 1, node 5, m/s/s
        155   -8.708680816176E-001                                                     T               2         AD First time derivative of vind (axial) at blade 1, node 6, m/s/s
        156    3.057311421025E-001                                                     T               2         AD First time derivative of vind (tangential) at blade 1, node 6, m/s/s
        157   -7.992351307829E-001                                                     T               2         AD First time derivative of vind (axial) at blade 1, node 7, m/s/s
        158    2.340582708195E-001                                                     T               2         AD First time derivative of vind (tangential) at blade 1, node 7, m/s/s
        159   -7.939703210066E-001                                                     T               2         AD First time derivative of vind (axial) at blade 1, node 8, m/s/s
        160    1.949572494491E-001                                                     T               2         AD First time derivative of vind (tangential) at blade 1, node 8, m/s/s
        161   -8.886737435192E-001                                                     T               2         AD First time derivative of vind (axial) at blade 1, node 9, m/s/s
        162    1.797313779139E-001                                                     T               2         AD First time derivative of vind (tangential) at blade 1, node 9, m/s/s
        163   -9.185049765931E-001                                                     T               2         AD First time derivative of vind (axial) at blade 1, node 10, m/s/s
        164    1.604707506521E-001                                                     T               2         AD First time derivative of vind (tangential) at blade 1, node 10, m/s/s
        165   -1.031697029477E+000                                                     T               2         AD First time derivative of vind (axial) at blade 1, node 11, m/s/s
        166    1.520737159212E-001                                                     T               2         AD First time derivative of vind (tangential) at blade 1, node 11, m/s/s
        167   -1.112470627122E+000                                                     T               2         AD First time derivative of vind (axial) at blade 1, node 12, m/s/s
        168    1.418455609602E-001                                                     T               2         AD First time derivative of vind (tangential) at blade 1, node 12, m/s/s
        169   -1.054774022046E+000                                                     T               2         AD First time derivative of vind (axial) at blade 1, node 13, m/s/s
        170    1.254445167961E-001                                                     T               2         AD First time derivative of vind (tangential) at blade 1, node 13, m/s/s