
Linearized model: Predictions were generated on 09-Dec-2025 at 22:30:58 using OpenFAST, compiled on Dec 09 2025 at 16:55:56 as a 64-bit application using double precision at commit v4.1.2-740-g10f0c46b-dirty
 linked with  NWTC Subroutine Library; ElastoDyn; InflowWind; AeroDyn; ServoDyn

Description from the FAST input file: NREL 5.0 MW Baseline Wind Turbine (Onshore), Linearization with AeroDyn + ED

Simulation information:
   Simulation time:                    54.6200 s
   Rotor Speed:                         1.0003 rad/s
   Azimuth:                             0.0067 rad
   Wind Speed:                          8.0000 m/s
   Number of continuous states:       258
   Number of discrete states:           0
   Number of constraint states:         0
   Number of inputs:                   72
   Number of outputs:                   5
   Jacobians included in this file?    No

Order of continuous states:
   Row/Column Operating Point                                                   Rotating Frame? Derivative Order Description
   ---------- ---------------                                                   --------------- ---------------- -----------
          1    2.081970242620E-001                                                     F               2         ED 1st tower fore-aft bending mode DOF (internal DOF index = DOF_TFA1), m
          2    1.756508030617E-002                                                     F               2         ED 1st tower side-to-side bending mode DOF (internal DOF index = DOF_TSS1), m
          3   -7.231259351648E-005                                                     F               2         ED 2nd tower fore-aft bending mode DOF (internal DOF index = DOF_TFA2), m
          4    1.423636607512E-004                                                     F               2         ED 2nd tower side-to-side bending mode DOF (internal DOF index = DOF_TSS2), m
          5    4.716893886827E+000                                                     F               2         ED Variable speed generator DOF (internal DOF index = DOF_GeAz), rad
          6    2.180481521084E-003                                                     F               2         ED Drivetrain rotational-flexibility DOF (internal DOF index = DOF_DrTr), rad
          7    3.176146693752E+000                                                     T               2         ED 1st flapwise bending-mode DOF of blade 1 (internal DOF index = DOF_BF(1,1)), m
          8    3.350955861556E+000                                                     T               2         ED 1st flapwise bending-mode DOF of blade 2 (internal DOF index = DOF_BF(2,1)), m
          9    3.050234879348E+000                                                     T               2         ED 1st flapwise bending-mode DOF of blade 3 (internal DOF index = DOF_BF(3,1)), m
         10    8.338499761750E-002                                                     T               2         ED 1st edgewise bending-mode DOF of blade 1 (internal DOF index = DOF_BE(1,1)), m
         11   -3.110665487204E-001                                                     T               2         ED 1st edgewise bending-mode DOF of blade 2 (internal DOF index = DOF_BE(2,1)), m
         12    4.954586912649E-001                                                     T               2         ED 1st edgewise bending-mode DOF of blade 3 (internal DOF index = DOF_BE(3,1)), m
         13    5.582853544622E-002                                                     T               2         ED 2nd flapwise bending-mode DOF of blade 1 (internal DOF index = DOF_BF(1,2)), m
         14   -8.570918552857E-003                                                     T               2         ED 2nd flapwise bending-mode DOF of blade 2 (internal DOF index = DOF_BF(2,2)), m
         15    8.523132997145E-002                                                     T               2         ED 2nd flapwise bending-mode DOF of blade 3 (internal DOF index = DOF_BF(3,2)), m
         16    2.550806491945E-004                                                     F               2         ED First time derivative of 1st tower fore-aft bending mode DOF (internal DOF index = DOF_TFA1), m/s
         17    1.054636629237E-003                                                     F               2         ED First time derivative of 1st tower side-to-side bending mode DOF (internal DOF index = DOF_TSS1), m/s
         18   -2.924564688487E-005                                                     F               2         ED First time derivative of 2nd tower fore-aft bending mode DOF (internal DOF index = DOF_TFA2), m/s
         19   -4.103926859506E-005                                                     F               2         ED First time derivative of 2nd tower side-to-side bending mode DOF (internal DOF index = DOF_TSS2), m/s
         20    1.000433972633E+000                                                     F               2         ED First time derivative of Variable speed generator DOF (internal DOF index = DOF_GeAz), rad/s
         21   -9.482468060960E-005                                                     F               2         ED First time derivative of Drivetrain rotational-flexibility DOF (internal DOF index = DOF_DrTr), rad/s
         22    2.056109217764E-001                                                     T               2         ED First time derivative of 1st flapwise bending-mode DOF of blade 1 (internal DOF index = DOF_BF(1,1)), m/s
         23   -1.039081003830E-001                                                     T               2         ED First time derivative of 1st flapwise bending-mode DOF of blade 2 (internal DOF index = DOF_BF(2,1)), m/s
         24   -1.379110623809E-001                                                     T               2         ED First time derivative of 1st flapwise bending-mode DOF of blade 3 (internal DOF index = DOF_BF(3,1)), m/s
         25   -5.003284627410E-001                                                     T               2         ED First time derivative of 1st edgewise bending-mode DOF of blade 1 (internal DOF index = DOF_BE(1,1)), m/s
         26    2.764150800554E-001                                                     T               2         ED First time derivative of 1st edgewise bending-mode DOF of blade 2 (internal DOF index = DOF_BE(2,1)), m/s
         27    2.401296132733E-001                                                     T               2         ED First time derivative of 1st edgewise bending-mode DOF of blade 3 (internal DOF index = DOF_BE(3,1)), m/s
         28   -6.451172142162E-002                                                     T               2         ED First time derivative of 2nd flapwise bending-mode DOF of blade 1 (internal DOF index = DOF_BF(1,2)), m/s
         29    2.176098425635E-002                                                     T               2         ED First time derivative of 2nd flapwise bending-mode DOF of blade 2 (internal DOF index = DOF_BF(2,2)), m/s
         30    8.779374614153E-002                                                     T               2         ED First time derivative of 2nd flapwise bending-mode DOF of blade 3 (internal DOF index = DOF_BF(3,2)), m/s
         31   -7.783122642246E+000                                                     T               2         AD vind (axial) at blade 1, node 1, m/s
         32    0.000000000000E+000                                                     T               2         AD vind (tangential) at blade 1, node 1, m/s
         33    0.000000000000E+000                                                     T               2         AD vind (axial) at blade 1, node 2, m/s
         34    0.000000000000E+000                                                     T               2         AD vind (tangential) at blade 1, node 2, m/s
         35    0.000000000000E+000                                                     T               2         AD vind (axial) at blade 1, node 3, m/s
         36    0.000000000000E+000                                                     T               2         AD vind (tangential) at blade 1, node 3, m/s
         37    0.000000000000E+000                                                     T               2         AD vind (axial) at blade 1, node 4, m/s
         38    0.000000000000E+000                                                     T               2         AD vind (tangential) at blade 1, node 4, m/s
         39   -2.015520700613E+000                                                     T               2         AD vind (axial) at blade 1, node 5, m/s
         40    9.496342741994E-001                                                     T               2         AD vind (tangential) at blade 1, node 5, m/s
         41   -2.176718305025E+000                                                     T               2         AD vind (axial) at blade 1, node 6, m/s
         42    7.647126592226E-001                                                     T               2         AD vind (tangential) at blade 1, node 6, m/s
         43   -1.996917748893E+000                                                     T               2         AD vind (axial) at blade 1, node 7, m/s
         44    5.850863004736E-001                                                     T               2         AD vind (tangential) at blade 1, node 7, m/s
         45   -1.983142052990E+000                                                     T               2         AD vind (axial) at blade 1, node 8, m/s
         46    4.871234969882E-001                                                     T               2         AD vind (tangential) at blade 1, node 8, m/s
         47   -2.219587231889E+000                                                     T               2         AD vind (axial) at blade 1, node 9, m/s
         48    4.489964845018E-001                                                     T               2         AD vind (tangential) at blade 1, node 9, m/s
         49   -2.293978028287E+000                                                     T               2         AD vind (axial) at blade 1, node 10, m/s
         50    4.007731539684E-001                                                     T               2         AD vind (tangential) at blade 1, node 10, m/s
         51   -2.577331777013E+000                                                     T               2         AD vind (axial) at blade 1, node 11, m/s
         52    3.797712594257E-001                                                     T               2         AD vind (tangential) at blade 1, node 11, m/s
         53   -2.780082421215E+000                                                     T               2         AD vind (axial) at blade 1, node 12, m/s
         54    3.541698838067E-001                                                     T               2         AD vind (tangential) at blade 1, node 12, m/s
         55   -2.637005525096E+000                                                     T               2         AD vind (axial) at blade 1, node 13, m/s
         56    3.131356409611E-001                                                     T               2         AD vind (tangential) at blade 1, node 13, m/s
         57   -2.753900973840E+000                                                     T               2         AD vind (axial) at blade 1, node 14, m/s
         58    2.922581492406E-001                                                     T               2         AD vind (tangential) at blade 1, node 14, m/s
         59   -2.918254762276E+000                                                     T               2         AD vind (axial) at blade 1, node 15, m/s
         60    2.758681791721E-001                                                     T               2         AD vind (tangential) at blade 1, node 15, m/s
         61   -3.179851634690E+000                                                     T               2         AD vind (axial) at blade 1, node 16, m/s
         62    2.670687432903E-001                                                     T               2         AD vind (tangential) at blade 1, node 16, m/s
         63   -3.494984616575E+000                                                     T               2         AD vind (axial) at blade 1, node 17, m/s
         64    2.640571811035E-001                                                     T               2         AD vind (tangential) at blade 1, node 17, m/s
         65   -3.641038601216E+000                                                     T               2         AD vind (axial) at blade 1, node 18, m/s
         66    2.601042563060E-001                                                     T               2         AD vind (tangential) at blade 1, node 18, m/s
         67   -7.921065125360E+000                                                     T               2         AD vind (axial) at blade 1, node 19, m/s
         68    0.000000000000E+000                                                     T               2         AD vind (tangential) at blade 1, node 19, m/s
         69   -7.867187172163E+000                                                     T               2         AD vind (axial) at blade 2, node 1, m/s
         70    0.000000000000E+000                                                     T               2         AD vind (tangential) at blade 2, node 1, m/s
         71    0.000000000000E+000                                                     T               2         AD vind (axial) at blade 2, node 2, m/s
         72    0.000000000000E+000                                                     T               2         AD vind (tangential) at blade 2, node 2, m/s
         73    0.000000000000E+000                                                     T               2         AD vind (axial) at blade 2, node 3, m/s
         74    0.000000000000E+000                                                     T               2         AD vind (tangential) at blade 2, node 3, m/s
         75    0.000000000000E+000                                                     T               2         AD vind (axial) at blade 2, node 4, m/s
         76    0.000000000000E+000                                                     T               2         AD vind (tangential) at blade 2, node 4, m/s
         77   -2.024827509643E+000                                                     T               2         AD vind (axial) at blade 2, node 5, m/s
         78    9.548361094178E-001                                                     T               2         AD vind (tangential) at blade 2, node 5, m/s
         79   -2.183821014835E+000                                                     T               2         AD vind (axial) at blade 2, node 6, m/s
         80    7.675250775464E-001                                                     T               2         AD vind (tangential) at blade 2, node 6, m/s
         81   -2.001261827383E+000                                                     T               2         AD vind (axial) at blade 2, node 7, m/s
         82    5.864878628099E-001                                                     T               2         AD vind (tangential) at blade 2, node 7, m/s
         83   -1.985684676461E+000                                                     T               2         AD vind (axial) at blade 2, node 8, m/s
         84    4.877893936589E-001                                                     T               2         AD vind (tangential) at blade 2, node 8, m/s
         85   -2.220957499657E+000                                                     T               2         AD vind (axial) at blade 2, node 9, m/s
         86    4.492641428476E-001                                                     T               2         AD vind (tangential) at blade 2, node 9, m/s
         87   -2.293827802569E+000                                                     T               2         AD vind (axial) at blade 2, node 10, m/s
         88    4.007042084279E-001                                                     T               2         AD vind (tangential) at blade 2, node 10, m/s
         89   -2.575567373851E+000                                                     T               2         AD vind (axial) at blade 2, node 11, m/s
         90    3.794577165511E-001                                                     T               2         AD vind (tangential) at blade 2, node 11, m/s
         91   -2.775964838530E+000                                                     T               2         AD vind (axial) at blade 2, node 12, m/s
         92    3.536193907773E-001                                                     T               2         AD vind (tangential) at blade 2, node 12, m/s
         93   -2.630372746759E+000                                                     T               2         AD vind (axial) at blade 2, node 13, m/s
         94    3.123501816329E-001                                                     T               2         AD vind (tangential) at blade 2, node 13, m/s
         95   -2.743498260830E+000                                                     T               2         AD vind (axial) at blade 2, node 14, m/s
         96    2.912844940809E-001                                                     T               2         AD vind (tangential) at blade 2, node 14, m/s
         97   -2.902917959080E+000                                                     T               2         AD vind (axial) at blade 2, node 15, m/s
         98    2.747805247667E-001                                                     T               2         AD vind (tangential) at blade 2, node 15, m/s
         99   -3.159083027654E+000                                                     T               2         AD vind (axial) at blade 2, node 16, m/s
        100    2.660206196463E-001                                                     T               2         AD vind (tangential) at blade 2, node 16, m/s
        101   -3.473072527277E+000                                                     T               2         AD vind (axial) at blade 2, node 17, m/s
        102    2.630293947572E-001                                                     T               2         AD vind (tangential) at blade 2, node 17, m/s
        103   -3.620580140698E+000                                                     T               2         AD vind (axial) at blade 2, node 18, m/s
        104    2.591975041887E-001                                                     T               2         AD vind (tangential) at blade 2, node 18, m/s
        105   -7.912611179150E+000                                                     T               2         AD vind (axial) at blade 2, node 19, m/s
        106    0.000000000000E+000                                                     T               2         AD vind (tangential) at blade 2, node 19, m/s
        107   -7.544713243741E+000                                                     T               2         AD vind (axial) at blade 3, node 1, m/s
        108    0.000000000000E+000                                                     T               2         AD vind (tangential) at blade 3, node 1, m/s
        109    0.000000000000E+000                                                     T               2         AD vind (axial) at blade 3, node 2, m/s
        110    0.000000000000E+000                                                     T               2         AD vind (tangential) at blade 3, node 2, m/s
        111    0.000000000000E+000                                                     T               2         AD vind (axial) at blade 3, node 3, m/s
        112    0.000000000000E+000                                                     T               2         AD vind (tangential) at blade 3, node 3, m/s
        113    0.000000000000E+000                                                     T               2         AD vind (axial) at blade 3, node 4, m/s
        114    0.000000000000E+000                                                     T               2         AD vind (tangential) at blade 3, node 4, m/s
        115   -2.007047396529E+000                                                     T               2         AD vind (axial) at blade 3, node 5, m/s
        116    9.396831218916E-001                                                     T               2         AD vind (tangential) at blade 3, node 5, m/s
        117   -2.165547819967E+000                                                     T               2         AD vind (axial) at blade 3, node 6, m/s
        118    7.591368887012E-001                                                     T               2         AD vind (tangential) at blade 3, node 6, m/s
        119   -1.989465663737E+000                                                     T               2         AD vind (axial) at blade 3, node 7, m/s
        120    5.823370721800E-001                                                     T               2         AD vind (tangential) at blade 3, node 7, m/s
        121   -1.978017102096E+000                                                     T               2         AD vind (axial) at blade 3, node 8, m/s
        122    4.857964914286E-001                                                     T               2         AD vind (tangential) at blade 3, node 8, m/s
        123   -2.214888114206E+000                                                     T               2         AD vind (axial) at blade 3, node 9, m/s
        124    4.483748747853E-001                                                     T               2         AD vind (tangential) at blade 3, node 9, m/s
        125   -2.289145952882E+000                                                     T               2         AD vind (axial) at blade 3, node 10, m/s
        126    4.006489004793E-001                                                     T               2         AD vind (tangential) at blade 3, node 10, m/s
        127   -2.569993027553E+000                                                     T               2         AD vind (axial) at blade 3, node 11, m/s
        128    3.799196314896E-001                                                     T               2         AD vind (tangential) at blade 3, node 11, m/s
        129   -2.768805015362E+000                                                     T               2         AD vind (axial) at blade 3, node 12, m/s
        130    3.545273324111E-001                                                     T               2         AD vind (tangential) at blade 3, node 12, m/s
        131   -2.623490492739E+000                                                     T               2         AD vind (axial) at blade 3, node 13, m/s
        132    3.135644564568E-001                                                     T               2         AD vind (tangential) at blade 3, node 13, m/s
        133   -2.735706088825E+000                                                     T               2         AD vind (axial) at blade 3, node 14, m/s
        134    2.927641295292E-001                                                     T               2         AD vind (tangential) at blade 3, node 14, m/s
        135   -2.894727586950E+000                                                     T               2         AD vind (axial) at blade 3, node 15, m/s
        136    2.764985306855E-001                                                     T               2         AD vind (tangential) at blade 3, node 15, m/s
        137   -3.149881365919E+000                                                     T               2         AD vind (axial) at blade 3, node 16, m/s
        138    2.679806873918E-001                                                     T               2         AD vind (tangential) at blade 3, node 16, m/s
        139   -3.464565890511E+000                                                     T               2         AD vind (axial) at blade 3, node 17, m/s
        140    2.651072239400E-001                                                     T               2         AD vind (tangential) at blade 3, node 17, m/s
        141   -3.615286524452E+000                                                     T               2         AD vind (axial) at blade 3, node 18, m/s
        142    2.610381603878E-001                                                     T               2         AD vind (tangential) at blade 3, node 18, m/s
        143   -7.911221061714E+000                                                     T               2         AD vind (axial) at blade 3, node 19, m/s
        144    0.000000000000E+000                                                     T               2         AD vind (tangential) at blade 3, node 19, m/s
        145   -3.101234776691E+000                                                     T               2         AD First time derivative of vind (axial) at blade 1, node 1, m/s/s
        146    0.000000000000E+000                                                     T               2         AD First time derivative of vind (tangential) at blade 1, node 1, m/s/s
        147    0.000000000000E+000                                                     T               2         AD First time derivative of vind (axial) at blade 1, node 2, m/s/s
        148    0.000000000000E+000                                                     T               2         AD First time derivative of vind (tangential) at blade 1, node 2, m/s/s
        149    0.000000000000E+000                                                     T               2         AD First time derivative of vind (axial) at blade 1, node 3, m/s/s
        150    0.000000000000E+000                                                     T               2         AD First time derivative of vind (tangential) at blade 1, node 3, m/s/s
        151    0.000000000000E+000                                                     T               2         AD First time derivative of vind (axial) at blade 1, node 4, m/s/s
        152    0.000000000000E+000                                                     T               2         AD First time derivative of vind (tangential) at blade 1, node 4, m/s/s
        153   -8.062689716428E-001                                                     T               2         AD First time derivative of vind (axial) at blade 1, node 5, m/s/s
        154    3.792845813852E-001                                                     T               2         AD First time derivative of vind (tangential) at blade 1, node 5, m/s/s
        155   -8.701110168742E-001                                                     T               2         AD First time derivative of vind (axial) at blade 1, node 6, m/s/s
        156    3.054798679406E-001                                                     T               2         AD First time derivative of vind (tangential) at blade 1, node 6, m/s/s
        157   -7.983298585848E-001                                                     T               2         AD First time derivative of vind (axial) at blade 1, node 7, m/s/s
        158    2.338120420578E-001                                                     T               2         AD First time derivative of vind (tangential) at blade 1, node 7, m/s/s
        159   -7.929431265253E-001                                                     T               2         AD First time derivative of vind (axial) at blade 1, node 8, m/s/s
        160    1.947279973195E-001                                                     T               2         AD First time derivative of vind (tangential) at blade 1, node 8, m/s/s
        161   -8.875679239692E-001                                                     T               2         AD First time derivative of vind (axial) at blade 1, node 9, m/s/s
        162    1.795364655450E-001                                                     T               2         AD First time derivative of vind (tangential) at blade 1, node 9, m/s/s
        163   -9.172876365272E-001                                                     T               2         AD First time derivative of vind (axial) at blade 1, node 10, m/s/s
        164    1.602917515627E-001                                                     T               2         AD First time derivative of vind (tangential) at blade 1, node 10, m/s/s
        165   -1.030397697305E+000                                                     T               2         AD First time derivative of vind (axial) at blade 1, node 11, m/s/s
        166    1.519235816773E-001                                                     T               2         AD First time derivative of vind (tangential) at blade 1, node 11, m/s/s
        167   -1.111043897170E+000                                                     T               2         AD First time derivative of vind (axial) at blade 1, node 12, m/s/s
        168    1.417142534947E-001                                                     T               2         AD First time derivative of vind (tangential) at blade 1, node 12, m/s/s
        169   -1.053411006168E+000                                                     T               2         AD First time derivative of vind (axial) at blade 1, node 13, m/s/s
        170    1.253212402452E-001                                                     T               2         AD First time derivative of vind (tangential) at blade 1, node 13, m/s/s