
Linearized model: Predictions were generated on 11-Oct-2025 at 13:44:19 using OpenFAST, compiled on Oct 10 2025 at 17:31:28 as a 64-bit application using double precision at commit v4.1.2-727-g39496902
 linked with  NWTC Subroutine Library; ElastoDyn; InflowWind; AeroDyn

Description from the FAST input file: One blade, 4 aero-stations, Linearization with continuous-state aerodynamic modules

Simulation information:
   Simulation time:                     1.1000 s
   Rotor Speed:                         1.2671 rad/s
   Azimuth:                             1.3938 rad
   Wind Speed:                         13.0000 m/s
   Number of continuous states:        30
   Number of discrete states:           0
   Number of constraint states:         0
   Number of inputs:                   15
   Number of outputs:                  31
   Jacobians included in this file?    No

Order of continuous states:
   Row/Column Operating Point                                                   Rotating Frame? Derivative Order Description
   ---------- ---------------                                                   --------------- ---------------- -----------
          1    6.242690311631E+000                                                     T               2         ED 1st flapwise bending-mode DOF of blade 1 (internal DOF index = DOF_BF(1,1)), m
          2   -1.001129406356E+001                                                     T               2         ED First time derivative of 1st flapwise bending-mode DOF of blade 1 (internal DOF index = DOF_BF(1,1)), m/s
          3   -1.303013002991E+001                                                     T               2         AD vind (axial) at blade 1, node 1, m/s
          4    0.000000000000E+000                                                     T               2         AD vind (tangential) at blade 1, node 1, m/s
          5   -8.932151718506E-001                                                     T               2         AD vind (axial) at blade 1, node 2, m/s
          6    3.691072122958E-001                                                     T               2         AD vind (tangential) at blade 1, node 2, m/s
          7   -1.265421494728E+000                                                     T               2         AD vind (axial) at blade 1, node 3, m/s
          8    2.846798316137E-001                                                     T               2         AD vind (tangential) at blade 1, node 3, m/s
          9   -1.411109236446E+001                                                     T               2         AD vind (axial) at blade 1, node 4, m/s
         10    0.000000000000E+000                                                     T               2         AD vind (tangential) at blade 1, node 4, m/s
         11   -5.212116040265E+000                                                     T               2         AD First time derivative of vind (axial) at blade 1, node 1, m/s/s
         12    0.000000000000E+000                                                     T               2         AD First time derivative of vind (tangential) at blade 1, node 1, m/s/s
         13   -3.570816649725E-001                                                     T               2         AD First time derivative of vind (axial) at blade 1, node 2, m/s/s
         14    1.476643220119E-001                                                     T               2         AD First time derivative of vind (tangential) at blade 1, node 2, m/s/s
         15   -5.061856218447E-001                                                     T               2         AD First time derivative of vind (axial) at blade 1, node 3, m/s/s
         16    1.142655886217E-001                                                     T               2         AD First time derivative of vind (tangential) at blade 1, node 3, m/s/s
         17   -5.749229818817E+000                                                     T               2         AD First time derivative of vind (axial) at blade 1, node 4, m/s/s
         18    0.000000000000E+000                                                     T               2         AD First time derivative of vind (tangential) at blade 1, node 4, m/s/s
         19    6.457027482091E-002                                                     T               1         AD x1 blade 1, node 2, rad
         20    1.590303114934E-001                                                     T               1         AD x2 blade 1, node 2, rad
         21    2.273912827176E+000                                                     T               1         AD x3 blade 1, node 2, -
         22    3.775991327969E-001                                                     T               1         AD x4 blade 1, node 2, -
         23    5.502536582445E-002                                                     T               1         AD x1 blade 1, node 3, rad
         24    1.487210880564E-001                                                     T               1         AD x2 blade 1, node 3, rad
         25    2.116024219285E+000                                                     T               1         AD x3 blade 1, node 3, -
         26    4.530784252273E-001                                                     T               1         AD x4 blade 1, node 3, -
         27   -9.112830082013E-004                                                     T               1         AD x1 blade 1, node 4, rad
         28   -1.940537694371E-003                                                     T               1         AD x2 blade 1, node 4, rad
         29    5.788735568774E-001                                                     T               1         AD x3 blade 1, node 4, -
         30    5.201152684702E-001                                                     T               1         AD x4 blade 1, node 4, -

Order of continuous state derivatives:
   Row/Column Operating Point                                                   Rotating Frame? Derivative Order Description
   ---------- ---------------                                                   --------------- ---------------- -----------
          1   -1.001129406356E+001                                                     T               2         First time derivative of ED 1st flapwise bending-mode DOF of blade 1 (internal DOF index = DOF_BF(1,1)), m/s
          2   -6.282520550915E+000                                                     T               2         First time derivative of ED First time derivative of 1st flapwise bending-mode DOF of blade 1 (internal DOF index = DOF_BF(1,1)), m/s/s
          3    1.160448901599E-003                                                     T               2         First time derivative of AD vind (axial) at blade 1, node 1, m/s/s
          4    0.000000000000E+000                                                     T               2         First time derivative of AD vind (tangential) at blade 1, node 1, m/s/s
          5   -6.152982578999E-004                                                     T               2         First time derivative of AD vind (axial) at blade 1, node 2, m/s/s
          6    1.569100686378E-004                                                     T               2         First time derivative of AD vind (tangential) at blade 1, node 2, m/s/s
          7    1.722793166219E-003                                                     T               2         First time derivative of AD vind (axial) at blade 1, node 3, m/s/s
          8    1.076027134197E-003                                                     T               2         First time derivative of AD vind (tangential) at blade 1, node 3, m/s/s
          9   -4.148535156958E-001                                                     T               2         First time derivative of AD vind (axial) at blade 1, node 4, m/s/s
         10    0.000000000000E+000                                                     T               2         First time derivative of AD vind (tangential) at blade 1, node 4, m/s/s
         11    3.026698257929E-004                                                     T               2         First time derivative of AD First time derivative of vind (axial) at blade 1, node 1, m/s/s/s
         12    0.000000000000E+000                                                     T               2         First time derivative of AD First time derivative of vind (tangential) at blade 1, node 1, m/s/s/s
         13   -1.478392738169E-004                                                     T               2         First time derivative of AD First time derivative of vind (axial) at blade 1, node 2, m/s/s/s
         14    3.647512956120E-005                                                     T               2         First time derivative of AD First time derivative of vind (tangential) at blade 1, node 2, m/s/s/s
         15    2.988819868812E-004                                                     T               2         First time derivative of AD First time derivative of vind (axial) at blade 1, node 3, m/s/s/s
         16    1.799384276196E-004                                                     T               2         First time derivative of AD First time derivative of vind (tangential) at blade 1, node 3, m/s/s/s
         17   -3.420742347642E-002                                                     T               2         First time derivative of AD First time derivative of vind (axial) at blade 1, node 4, m/s/s/s
         18    0.000000000000E+000                                                     T               2         First time derivative of AD First time derivative of vind (tangential) at blade 1, node 4, m/s/s/s
         19    1.077384405623E-002                                                     T               1         First time derivative of AD x1 blade 1, node 2, rad/s
         20    2.355972790602E-002                                                     T               1         First time derivative of AD x2 blade 1, node 2, rad/s
         21    3.888981581248E-001                                                     T               1         First time derivative of AD x3 blade 1, node 2, -/s
         22   -1.358355716390E-001                                                     T               1         First time derivative of AD x4 blade 1, node 2, -/s
         23    5.557436601483E-002                                                     T               1         First time derivative of AD x1 blade 1, node 3, rad/s
         24    6.688571749667E-002                                                     T               1         First time derivative of AD x2 blade 1, node 3, rad/s
         25    1.231374446479E+000                                                     T               1         First time derivative of AD x3 blade 1, node 3, -/s
         26   -5.735901412600E-001                                                     T               1         First time derivative of AD x4 blade 1, node 3, -/s
         27    1.702063844532E-003                                                     T               1         First time derivative of AD x1 blade 1, node 4, rad/s
         28    4.042918230745E-003                                                     T               1         First time derivative of AD x2 blade 1, node 4, rad/s
         29    3.108348883611E-002                                                     T               1         First time derivative of AD x3 blade 1, node 4, -/s
         30    1.205524669033E-002                                                     T               1         First time derivative of AD x4 blade 1, node 4, -/s

Order of inputs:
     Column   Operating Point                                                   Rotating Frame? Derivative Order Description
   ---------- ---------------                                                   --------------- ---------------- -----------
          1    1.300000000000E+001                                                     F               0         IfW Extended input: horizontal wind speed (steady/uniform wind) (hub), m/s
          2    2.000000000000E-001                                                     F               0         IfW Extended input: vertical power-law shear exponent (hub), -
          3    0.000000000000E+000                                                     F               0         IfW Extended input: propagation direction (hub), rad
          4    0.000000000000E+000                                                     T               0         ED Blade 1 pitch command, rad
          5    0.000000000000E+000                                                     T               0         ED Blade 1 pitch moment, Nm
          6    0.000000000000E+000                                                     F               0         ED Yaw moment, Nm
          7    0.000000000000E+000                                                     F               0         ED Generator torque, Nm
          8    0.000000000000E+000                                                     F               0         ED Extended input: collective blade-pitch command, rad
          9    0.000000000000E+000                                                     T               0         AD User property on blade 1, node 1, -
         10    0.000000000000E+000                                                     T               0         AD User property on blade 1, node 2, -
         11    0.000000000000E+000                                                     T               0         AD User property on blade 1, node 3, -
         12    0.000000000000E+000                                                     T               0         AD User property on blade 1, node 4, -
         13    1.300000000000E+001                                                     F               0         AD Extended input: horizontal wind speed (steady/uniform wind), m/s
         14    2.000000000000E-001                                                     F               0         AD Extended input: vertical power-law shear exponent, -
         15    0.000000000000E+000                                                     F               0         AD Extended input: propagation direction, rad

Order of outputs:
        Row   Operating Point                                                   Rotating Frame? Derivative Order Description
   ---------- ---------------                                                   --------------- ---------------- -----------
          1    1.300000000000E+001                                                     F               0         IfW Wind1VelX, (m/s)
          2    0.000000000000E+000                                                     F               0         IfW Wind1VelY, (m/s)
          3    0.000000000000E+000                                                     F               0         IfW Wind1VelZ, (m/s)
          4    3.203201684680E+002                                                     F               0         ED TwrBsFxt, (kN)
          5    3.176778819710E+004                                                     F               0         ED TwrBsMyt, (kN-m)
          6    6.242690311631E+000                                                     F               0         ED Q_B1F1, (m)
          7    8.790271033344E-002                                                     F               0         AD RtAeroCp, (-)
          8    1.386438109174E-001                                                     F               0         AD RtAeroCt, (-)
          9    1.511353481612E+000                                                     T               0         AD B1N1Cl, (-)
         10    7.502505706012E-002                                                     T               0         AD B1N1AxInd, (-)
         11    5.011489488017E-003                                                     T               0         AD B1N1TnInd, (-)
         12    0.000000000000E+000                                                     T               0         AD AB1N001UA_Flag, (-)
         13    1.000000000000E+000                                                     T               0         AD AB1N002UA_Flag, (-)
         14    1.000000000000E+000                                                     T               0         AD AB1N003UA_Flag, (-)
         15    1.000000000000E+000                                                     T               0         AD AB1N004UA_Flag, (-)
         16    0.000000000000E+000                                                     T               0         AD AB1N001UA_x1, (rad)
         17    6.457027482091E-002                                                     T               0         AD AB1N002UA_x1, (rad)
         18    5.502536582445E-002                                                     T               0         AD AB1N003UA_x1, (rad)
         19   -9.112830082013E-004                                                     T               0         AD AB1N004UA_x1, (rad)
         20    0.000000000000E+000                                                     T               0         AD AB1N001UA_x2, (rad)
         21    1.590303114934E-001                                                     T               0         AD AB1N002UA_x2, (rad)
         22    1.487210880564E-001                                                     T               0         AD AB1N003UA_x2, (rad)
         23   -1.940537694371E-003                                                     T               0         AD AB1N004UA_x2, (rad)
         24    0.000000000000E+000                                                     T               0         AD AB1N001UA_x3, (-)
         25    2.273912827176E+000                                                     T               0         AD AB1N002UA_x3, (-)
         26    2.116024219285E+000                                                     T               0         AD AB1N003UA_x3, (-)
         27    5.788735568774E-001                                                     T               0         AD AB1N004UA_x3, (-)
         28    0.000000000000E+000                                                     T               0         AD AB1N001UA_x4, (-)
         29    3.775991327969E-001                                                     T               0         AD AB1N002UA_x4, (-)
         30    4.530784252273E-001                                                     T               0         AD AB1N003UA_x4, (-)
         31    5.201152684702E-001                                                     T               0         AD AB1N004UA_x4, (-)


Linearized state matrices:

A: 30 x 30
    0.000000000000E+000  1.000000000000E+000  0.000000000000E+000  0.000000000000E+000  0.000000000000E+000  0.000000000000E+000  0.000000000000E+000  0.000000000000E+000  0.000000000000E+000  0.000000000000E+000  0.000000000000E+000  0.000000000000E+000  0.000000000000E+000  0.000000000000E+000  0.000000000000E+000  0.000000000000E+000  0.000000000000E+000  0.000000000000E+000  0.000000000000E+000  0.000000000000E+000  0.000000000000E+000  0.000000000000E+000  0.000000000000E+000  0.000000000000E+000  0.000000000000E+000  0.000000000000E+000  0.000000000000E+000  0.000000000000E+000  0.000000000000E+000  0.000000000000E+000
   -1.600534965900E+001 -4.945859064090E-002  0.000000000000E+000  0.000000000000E+000  1.862488286744E-001  4.170827235016E-001  6.221100060402E-001  2.022235198632E+000  0.000000000000E+000  0.000000000000E+000  0.000000000000E+000  0.000000000000E+000  0.000000000000E+000  0.000000000000E+000  0.000000000000E+000  0.000000000000E+000  0.000000000000E+000  0.000000000000E+000  2.217466842185E+001  2.217466842185E+001  0.000000000000E+000  6.750352924783E+000  1.989627468884E+002  1.989627468884E+002  0.000000000000E+000  4.979446156902E+001  1.771281151449E+002  1.771281151449E+002  0.000000000000E+000  9.402361261094E+000
   -2.693615055562E-020 -1.815373709156E-021 -2.565071974878E-002  0.000000000000E+000  4.201109024331E-022  9.411002784741E-022  1.511414328791E-021  4.923515043180E-021  0.000000000000E+000  0.000000000000E+000  2.565071974878E-002  0.000000000000E+000  0.000000000000E+000  0.000000000000E+000  0.000000000000E+000  0.000000000000E+000  0.000000000000E+000  0.000000000000E+000  4.984245331820E-020  4.984245331820E-020  0.000000000000E+000  1.519852740958E-020  4.801006201116E-019  4.801006201116E-019  0.000000000000E+000  1.206852079904E-019  3.168357179735E-019  3.168357179735E-019  0.000000000000E+000  1.682406000366E-020
    0.000000000000E+000  0.000000000000E+000  0.000000000000E+000 -2.565071974878E-002  0.000000000000E+000  0.000000000000E+000  0.000000000000E+000  0.000000000000E+000  0.000000000000E+000  0.000000000000E+000  0.000000000000E+000  2.565071974878E-002  0.000000000000E+000  0.000000000000E+000  0.000000000000E+000  0.000000000000E+000  0.000000000000E+000  0.000000000000E+000  0.000000000000E+000  0.000000000000E+000  0.000000000000E+000  0.000000000000E+000  0.000000000000E+000  0.000000000000E+000  0.000000000000E+000  0.000000000000E+000  0.000000000000E+000  0.000000000000E+000  0.000000000000E+000  0.000000000000E+000
   -9.738599920740E-006 -7.854420280772E-005  0.000000000000E+000  0.000000000000E+000 -2.840072093401E-002 -7.161782413642E-021 -1.570654120308E-021 -4.994560362548E-021  0.000000000000E+000  0.000000000000E+000  0.000000000000E+000  0.000000000000E+000  2.840072093401E-002  0.000000000000E+000  0.000000000000E+000  0.000000000000E+000  0.000000000000E+000  0.000000000000E+000 -3.664954737274E-019 -3.664954737274E-019  0.000000000000E+000 -1.133909735342E-019 -5.386575814662E-019 -5.386575814662E-019  0.000000000000E+000 -1.296806210303E-019 -2.097453899708E-018 -2.097453899708E-018  0.000000000000E+000 -1.112908003480E-019
   -2.627329222726E-006 -1.517247009102E-005  0.000000000000E+000  0.000000000000E+000  1.021034358780E-021 -2.840072093401E-002  1.627930805774E-022  4.878053376865E-022  0.000000000000E+000  0.000000000000E+000  0.000000000000E+000  0.000000000000E+000  0.000000000000E+000  2.840072093401E-002  0.000000000000E+000  0.000000000000E+000  0.000000000000E+000  0.000000000000E+000  1.169766043447E-019  1.169766043447E-019  0.000000000000E+000  3.624565481042E-020  6.554135074597E-020  6.554135074597E-020  0.000000000000E+000  1.447384252632E-020  6.160690627209E-019  6.160690627209E-019  0.000000000000E+000  3.264227759214E-020
   -5.462398304179E-005 -3.434426111930E-004  0.000000000000E+000  0.000000000000E+000 -6.553602090866E-021 -1.476629264554E-020 -3.846401513958E-002  5.427676455025E-020  0.000000000000E+000  0.000000000000E+000  0.000000000000E+000  0.000000000000E+000  0.000000000000E+000  0.000000000000E+000  3.846401513958E-002  0.000000000000E+000  0.000000000000E+000  0.000000000000E+000 -7.263953345988E-019 -7.263953345988E-019  0.000000000000E+000 -2.285448548408E-019  5.216772861899E-018  5.216772861899E-018  0.000000000000E+000  1.318829026118E-018 -2.374245308014E-019 -2.374245308014E-019  0.000000000000E+000 -1.188448148942E-020
   -1.428303603958E-005 -1.201716873388E-004  0.000000000000E+000  0.000000000000E+000  1.342490931203E-021  3.029624269338E-021 -5.707208708939E-021 -3.846401513958E-002  0.000000000000E+000  0.000000000000E+000  0.000000000000E+000  0.000000000000E+000  0.000000000000E+000  0.000000000000E+000  0.000000000000E+000  3.846401513958E-002  0.000000000000E+000  0.000000000000E+000  1.458895320938E-019  1.458895320938E-019  0.000000000000E+000  4.632310923610E-020 -1.798456232266E-018 -1.798456232266E-018  0.000000000000E+000 -4.538139873150E-019 -3.674858745006E-019 -3.674858745006E-019  0.000000000000E+000 -1.971162175349E-020
    8.621348417104E-003  4.789508016504E-002  0.000000000000E+000  0.000000000000E+000 -6.254850086235E-020 -1.407444494610E-019  1.243078442427E-019  4.091646963227E-019 -7.692307692308E-002  0.000000000000E+000  0.000000000000E+000  0.000000000000E+000  0.000000000000E+000  0.000000000000E+000  0.000000000000E+000  0.000000000000E+000  7.692307692308E-002  0.000000000000E+000 -7.044931257926E-018 -7.044931257926E-018  0.000000000000E+000 -2.200019500975E-018  3.813591780842E-017  3.813591780842E-017  0.000000000000E+000  9.792332629171E-018 -3.271351739124E-017 -3.271351739124E-017  0.000000000000E+000 -1.719229540394E-018
    0.000000000000E+000  0.000000000000E+000  0.000000000000E+000  0.000000000000E+000  0.000000000000E+000  0.000000000000E+000  0.000000000000E+000  0.000000000000E+000  0.000000000000E+000 -7.692307692308E-002  0.000000000000E+000  0.000000000000E+000  0.000000000000E+000  0.000000000000E+000  0.000000000000E+000  0.000000000000E+000  0.000000000000E+000  7.692307692308E-002  0.000000000000E+000  0.000000000000E+000  0.000000000000E+000  0.000000000000E+000  0.000000000000E+000  0.000000000000E+000  0.000000000000E+000  0.000000000000E+000  0.000000000000E+000  0.000000000000E+000  0.000000000000E+000  0.000000000000E+000
   -7.000752368594E-021 -4.718187837575E-022  0.000000000000E+000  0.000000000000E+000  1.091875540719E-022  2.445935988518E-022  3.928192122466E-022  1.279630121208E-021  0.000000000000E+000  0.000000000000E+000 -1.000000000000E-002  0.000000000000E+000  0.000000000000E+000  0.000000000000E+000  0.000000000000E+000  0.000000000000E+000  0.000000000000E+000  0.000000000000E+000  1.295414028829E-020  1.295414028829E-020  0.000000000000E+000  3.950123702421E-021  1.247789860125E-019  1.247789860125E-019  0.000000000000E+000  3.136629541585E-020  8.234615404596E-020  8.234615404596E-020  0.000000000000E+000  4.372602450258E-021
    0.000000000000E+000  0.000000000000E+000  0.000000000000E+000  0.000000000000E+000  0.000000000000E+000  0.000000000000E+000  0.000000000000E+000  0.000000000000E+000  0.000000000000E+000  0.000000000000E+000  0.000000000000E+000 -1.000000000000E-002  0.000000000000E+000  0.000000000000E+000  0.000000000000E+000  0.000000000000E+000  0.000000000000E+000  0.000000000000E+000  0.000000000000E+000  0.000000000000E+000  0.000000000000E+000  0.000000000000E+000  0.000000000000E+000  0.000000000000E+000  0.000000000000E+000  0.000000000000E+000  0.000000000000E+000  0.000000000000E+000  0.000000000000E+000  0.000000000000E+000
   -2.285998289355E-006 -1.843713826613E-005  0.000000000000E+000  0.000000000000E+000 -7.483856522768E-022 -1.681126905260E-021 -3.686887911419E-022 -1.172402248556E-021  0.000000000000E+000  0.000000000000E+000  0.000000000000E+000  0.000000000000E+000 -1.000000000000E-002  0.000000000000E+000  0.000000000000E+000  0.000000000000E+000  0.000000000000E+000  0.000000000000E+000 -8.602961748258E-020 -8.602961748258E-020  0.000000000000E+000 -2.661692375055E-020 -1.264422319226E-019 -1.264422319226E-019  0.000000000000E+000 -3.044068759889E-020 -4.923475721106E-019 -4.923475721106E-019  0.000000000000E+000 -2.612393786448E-020
   -6.167282933486E-007 -3.561522288177E-006  0.000000000000E+000  0.000000000000E+000  2.396733428357E-022  5.385362974548E-022  3.821336811735E-023  1.145053885122E-022  0.000000000000E+000  0.000000000000E+000  0.000000000000E+000  0.000000000000E+000  0.000000000000E+000 -1.000000000000E-002  0.000000000000E+000  0.000000000000E+000  0.000000000000E+000  0.000000000000E+000  2.745859975796E-020  2.745859975796E-020  0.000000000000E+000  8.508153694323E-021  1.538490305657E-020  1.538490305657E-020  0.000000000000E+000  3.397529370223E-021  1.446134798602E-019  1.446134798602E-019  0.000000000000E+000  7.662311969234E-021
   -9.467547410840E-006 -5.952621949749E-005  0.000000000000E+000  0.000000000000E+000 -1.135884552021E-021 -2.559325920943E-021  2.878630751879E-021  9.407366747558E-021  0.000000000000E+000  0.000000000000E+000  0.000000000000E+000  0.000000000000E+000  0.000000000000E+000  0.000000000000E+000 -1.000000000000E-002  0.000000000000E+000  0.000000000000E+000  0.000000000000E+000 -1.259004174790E-019 -1.259004174790E-019  0.000000000000E+000 -3.961189075233E-020  9.041824058094E-019  9.041824058094E-019  0.000000000000E+000  2.285823119492E-019 -4.115093548083E-020 -4.115093548083E-020  0.000000000000E+000 -2.059844150660E-021
   -2.475566836127E-006 -2.082841792131E-005  0.000000000000E+000  0.000000000000E+000  2.326834447438E-022  5.251010601889E-022 -9.891858122851E-022 -3.229568309203E-021  0.000000000000E+000  0.000000000000E+000  0.000000000000E+000  0.000000000000E+000  0.000000000000E+000  0.000000000000E+000  0.000000000000E+000 -1.000000000000E-002  0.000000000000E+000  0.000000000000E+000  2.528589064599E-020  2.528589064599E-020  0.000000000000E+000  8.028821929275E-021 -3.117123413039E-019 -3.117123413039E-019  0.000000000000E+000 -7.865602618762E-020 -6.369345012770E-020 -6.369345012770E-020  0.000000000000E+000 -3.416461105608E-021
    7.471835294823E-004  4.150906947637E-003  0.000000000000E+000  0.000000000000E+000 -5.420870074737E-021 -1.219785228662E-020  1.077334650103E-020  3.546094034796E-020  0.000000000000E+000  0.000000000000E+000  0.000000000000E+000  0.000000000000E+000  0.000000000000E+000  0.000000000000E+000  0.000000000000E+000  0.000000000000E+000 -1.000000000000E-002  0.000000000000E+000 -6.105607090202E-019 -6.105607090202E-019  0.000000000000E+000 -1.906683567512E-019  3.305112876729E-018  3.305112876729E-018  0.000000000000E+000  8.486688278613E-019 -2.835171507241E-018 -2.835171507241E-018  0.000000000000E+000 -1.489998935009E-019