
Linearized model: Predictions were generated on 11-Oct-2025 at 13:44:19 using OpenFAST, compiled on Oct 10 2025 at 17:31:28 as a 64-bit application using double precision at commit v4.1.2-727-g39496902
 linked with  NWTC Subroutine Library; ElastoDyn; InflowWind; AeroDyn

Description from the FAST input file: One blade, 4 aero-stations, Linearization with continuous-state aerodynamic modules

Simulation information:
   Simulation time:                     1.1000 s
   Rotor Speed:                         1.2671 rad/s
   Azimuth:                             1.3938 rad
   Wind Speed:                         13.0000 m/s
   Number of continuous states:        28
   Number of discrete states:           0
   Number of constraint states:         0
   Number of inputs:                    7
   Number of outputs:                  25
   Jacobians included in this file?    No

Order of continuous states:
   Row/Column Operating Point                                                   Rotating Frame? Derivative Order Description
   ---------- ---------------                                                   --------------- ---------------- -----------
          1   -1.303013002991E+001                                                     T               2         vind (axial) at blade 1, node 1, m/s
          2    0.000000000000E+000                                                     T               2         vind (tangential) at blade 1, node 1, m/s
          3   -8.932151718506E-001                                                     T               2         vind (axial) at blade 1, node 2, m/s
          4    3.691072122958E-001                                                     T               2         vind (tangential) at blade 1, node 2, m/s
          5   -1.265421494728E+000                                                     T               2         vind (axial) at blade 1, node 3, m/s
          6    2.846798316137E-001                                                     T               2         vind (tangential) at blade 1, node 3, m/s
          7   -1.411109236446E+001                                                     T               2         vind (axial) at blade 1, node 4, m/s
          8    0.000000000000E+000                                                     T               2         vind (tangential) at blade 1, node 4, m/s
          9   -5.212116040265E+000                                                     T               2         First time derivative of vind (axial) at blade 1, node 1, m/s/s
         10    0.000000000000E+000                                                     T               2         First time derivative of vind (tangential) at blade 1, node 1, m/s/s
         11   -3.570816649725E-001                                                     T               2         First time derivative of vind (axial) at blade 1, node 2, m/s/s
         12    1.476643220119E-001                                                     T               2         First time derivative of vind (tangential) at blade 1, node 2, m/s/s
         13   -5.061856218447E-001                                                     T               2         First time derivative of vind (axial) at blade 1, node 3, m/s/s
         14    1.142655886217E-001                                                     T               2         First time derivative of vind (tangential) at blade 1, node 3, m/s/s
         15   -5.749229818817E+000                                                     T               2         First time derivative of vind (axial) at blade 1, node 4, m/s/s
         16    0.000000000000E+000                                                     T               2         First time derivative of vind (tangential) at blade 1, node 4, m/s/s
         17    6.457027482091E-002                                                     T               1         x1 blade 1, node 2, rad
         18    1.590303114934E-001                                                     T               1         x2 blade 1, node 2, rad
         19    2.273912827176E+000                                                     T               1         x3 blade 1, node 2, -
         20    3.775991327969E-001                                                     T               1         x4 blade 1, node 2, -
         21    5.502536582445E-002                                                     T               1         x1 blade 1, node 3, rad
         22    1.487210880564E-001                                                     T               1         x2 blade 1, node 3, rad
         23    2.116024219285E+000                                                     T               1         x3 blade 1, node 3, -
         24    4.530784252273E-001                                                     T               1         x4 blade 1, node 3, -
         25   -9.112830082013E-004                                                     T               1         x1 blade 1, node 4, rad
         26   -1.940537694371E-003                                                     T               1         x2 blade 1, node 4, rad
         27    5.788735568774E-001                                                     T               1         x3 blade 1, node 4, -
         28    5.201152684702E-001                                                     T               1         x4 blade 1, node 4, -

Order of continuous state derivatives:
   Row/Column Operating Point                                                   Rotating Frame? Derivative Order Description
   ---------- ---------------                                                   --------------- ---------------- -----------
          1    1.160448901599E-003                                                     T               2         First time derivative of vind (axial) at blade 1, node 1, m/s/s
          2    0.000000000000E+000                                                     T               2         First time derivative of vind (tangential) at blade 1, node 1, m/s/s
          3   -6.152982578999E-004                                                     T               2         First time derivative of vind (axial) at blade 1, node 2, m/s/s
          4    1.569100686378E-004                                                     T               2         First time derivative of vind (tangential) at blade 1, node 2, m/s/s
          5    1.722793166219E-003                                                     T               2         First time derivative of vind (axial) at blade 1, node 3, m/s/s
          6    1.076027134197E-003                                                     T               2         First time derivative of vind (tangential) at blade 1, node 3, m/s/s
          7   -4.148535156958E-001                                                     T               2         First time derivative of vind (axial) at blade 1, node 4, m/s/s
          8    0.000000000000E+000                                                     T               2         First time derivative of vind (tangential) at blade 1, node 4, m/s/s
          9    3.026698257929E-004                                                     T               2         First time derivative of First time derivative of vind (axial) at blade 1, node 1, m/s/s/s
         10    0.000000000000E+000                                                     T               2         First time derivative of First time derivative of vind (tangential) at blade 1, node 1, m/s/s/s
         11   -1.478392738169E-004                                                     T               2         First time derivative of First time derivative of vind (axial) at blade 1, node 2, m/s/s/s
         12    3.647512956120E-005                                                     T               2         First time derivative of First time derivative of vind (tangential) at blade 1, node 2, m/s/s/s
         13    2.988819868812E-004                                                     T               2         First time derivative of First time derivative of vind (axial) at blade 1, node 3, m/s/s/s
         14    1.799384276196E-004                                                     T               2         First time derivative of First time derivative of vind (tangential) at blade 1, node 3, m/s/s/s
         15   -3.420742347642E-002                                                     T               2         First time derivative of First time derivative of vind (axial) at blade 1, node 4, m/s/s/s
         16    0.000000000000E+000                                                     T               2         First time derivative of First time derivative of vind (tangential) at blade 1, node 4, m/s/s/s
         17    1.077384405623E-002                                                     T               1         First time derivative of x1 blade 1, node 2, rad/s
         18    2.355972790602E-002                                                     T               1         First time derivative of x2 blade 1, node 2, rad/s
         19    3.888981581248E-001                                                     T               1         First time derivative of x3 blade 1, node 2, -/s
         20   -1.358355716390E-001                                                     T               1         First time derivative of x4 blade 1, node 2, -/s
         21    5.557436601483E-002                                                     T               1         First time derivative of x1 blade 1, node 3, rad/s
         22    6.688571749667E-002                                                     T               1         First time derivative of x2 blade 1, node 3, rad/s
         23    1.231374446479E+000                                                     T               1         First time derivative of x3 blade 1, node 3, -/s
         24   -5.735901412600E-001                                                     T               1         First time derivative of x4 blade 1, node 3, -/s
         25    1.702063844532E-003                                                     T               1         First time derivative of x1 blade 1, node 4, rad/s
         26    4.042918230745E-003                                                     T               1         First time derivative of x2 blade 1, node 4, rad/s
         27    3.108348883611E-002                                                     T               1         First time derivative of x3 blade 1, node 4, -/s
         28    1.205524669033E-002                                                     T               1         First time derivative of x4 blade 1, node 4, -/s

Order of inputs:
     Column   Operating Point                                                   Rotating Frame? Derivative Order Description
   ---------- ---------------                                                   --------------- ---------------- -----------
          1    0.000000000000E+000                                                     T               0         User property on blade 1, node 1, -
          2    0.000000000000E+000                                                     T               0         User property on blade 1, node 2, -
          3    0.000000000000E+000                                                     T               0         User property on blade 1, node 3, -
          4    0.000000000000E+000                                                     T               0         User property on blade 1, node 4, -
          5    1.300000000000E+001                                                     F               0         Extended input: horizontal wind speed (steady/uniform wind), m/s
          6    2.000000000000E-001                                                     F               0         Extended input: vertical power-law shear exponent, -
          7    0.000000000000E+000                                                     F               0         Extended input: propagation direction, rad

Order of outputs:
        Row   Operating Point                                                   Rotating Frame? Derivative Order Description
   ---------- ---------------                                                   --------------- ---------------- -----------
          1    8.790271033344E-002                                                     F               0         RtAeroCp, (-)
          2    1.386438109174E-001                                                     F               0         RtAeroCt, (-)
          3    1.511353481612E+000                                                     T               0         B1N1Cl, (-)
          4    7.502505706012E-002                                                     T               0         B1N1AxInd, (-)
          5    5.011489488017E-003                                                     T               0         B1N1TnInd, (-)
          6    0.000000000000E+000                                                     T               0         AB1N001UA_Flag, (-)
          7    1.000000000000E+000                                                     T               0         AB1N002UA_Flag, (-)
          8    1.000000000000E+000                                                     T               0         AB1N003UA_Flag, (-)
          9    1.000000000000E+000                                                     T               0         AB1N004UA_Flag, (-)
         10    0.000000000000E+000                                                     T               0         AB1N001UA_x1, (rad)
         11    6.457027482091E-002                                                     T               0         AB1N002UA_x1, (rad)
         12    5.502536582445E-002                                                     T               0         AB1N003UA_x1, (rad)
         13   -9.112830082013E-004                                                     T               0         AB1N004UA_x1, (rad)
         14    0.000000000000E+000                                                     T               0         AB1N001UA_x2, (rad)
         15    1.590303114934E-001                                                     T               0         AB1N002UA_x2, (rad)
         16    1.487210880564E-001                                                     T               0         AB1N003UA_x2, (rad)
         17   -1.940537694371E-003                                                     T               0         AB1N004UA_x2, (rad)
         18    0.000000000000E+000                                                     T               0         AB1N001UA_x3, (-)
         19    2.273912827176E+000                                                     T               0         AB1N002UA_x3, (-)
         20    2.116024219285E+000                                                     T               0         AB1N003UA_x3, (-)
         21    5.788735568774E-001                                                     T               0         AB1N004UA_x3, (-)
         22    0.000000000000E+000                                                     T               0         AB1N001UA_x4, (-)
         23    3.775991327969E-001                                                     T               0         AB1N002UA_x4, (-)
         24    4.530784252273E-001                                                     T               0         AB1N003UA_x4, (-)
         25    5.201152684702E-001                                                     T               0         AB1N004UA_x4, (-)


Linearized state matrices:

A: 28 x 28
   -2.565071974878E-002  0.000000000000E+000  0.000000000000E+000  0.000000000000E+000  0.000000000000E+000  0.000000000000E+000  0.000000000000E+000  0.000000000000E+000  2.565071974878E-002  0.000000000000E+000  0.000000000000E+000  0.000000000000E+000  0.000000000000E+000  0.000000000000E+000  0.000000000000E+000  0.000000000000E+000  0.000000000000E+000  0.000000000000E+000  0.000000000000E+000  0.000000000000E+000  0.000000000000E+000  0.000000000000E+000  0.000000000000E+000  0.000000000000E+000  0.000000000000E+000  0.000000000000E+000  0.000000000000E+000  0.000000000000E+000
    0.000000000000E+000 -2.565071974878E-002  0.000000000000E+000  0.000000000000E+000  0.000000000000E+000  0.000000000000E+000  0.000000000000E+000  0.000000000000E+000  0.000000000000E+000  2.565071974878E-002  0.000000000000E+000  0.000000000000E+000  0.000000000000E+000  0.000000000000E+000  0.000000000000E+000  0.000000000000E+000  0.000000000000E+000  0.000000000000E+000  0.000000000000E+000  0.000000000000E+000  0.000000000000E+000  0.000000000000E+000  0.000000000000E+000  0.000000000000E+000  0.000000000000E+000  0.000000000000E+000  0.000000000000E+000  0.000000000000E+000
    0.000000000000E+000  0.000000000000E+000 -2.840072093401E-002  0.000000000000E+000  0.000000000000E+000  0.000000000000E+000  0.000000000000E+000  0.000000000000E+000  0.000000000000E+000  0.000000000000E+000  2.840072093401E-002  0.000000000000E+000  0.000000000000E+000  0.000000000000E+000  0.000000000000E+000  0.000000000000E+000  0.000000000000E+000  0.000000000000E+000  0.000000000000E+000  0.000000000000E+000  0.000000000000E+000  0.000000000000E+000  0.000000000000E+000  0.000000000000E+000  0.000000000000E+000  0.000000000000E+000  0.000000000000E+000  0.000000000000E+000
    0.000000000000E+000  0.000000000000E+000  0.000000000000E+000 -2.840072093401E-002  0.000000000000E+000  0.000000000000E+000  0.000000000000E+000  0.000000000000E+000  0.000000000000E+000  0.000000000000E+000  0.000000000000E+000  2.840072093401E-002  0.000000000000E+000  0.000000000000E+000  0.000000000000E+000  0.000000000000E+000  0.000000000000E+000  0.000000000000E+000  0.000000000000E+000  0.000000000000E+000  0.000000000000E+000  0.000000000000E+000  0.000000000000E+000  0.000000000000E+000  0.000000000000E+000  0.000000000000E+000  0.000000000000E+000  0.000000000000E+000
    0.000000000000E+000  0.000000000000E+000  0.000000000000E+000  0.000000000000E+000 -3.846401513958E-002  0.000000000000E+000  0.000000000000E+000  0.000000000000E+000  0.000000000000E+000  0.000000000000E+000  0.000000000000E+000  0.000000000000E+000  3.846401513958E-002  0.000000000000E+000  0.000000000000E+000  0.000000000000E+000  0.000000000000E+000  0.000000000000E+000  0.000000000000E+000  0.000000000000E+000  0.000000000000E+000  0.000000000000E+000  0.000000000000E+000  0.000000000000E+000  0.000000000000E+000  0.000000000000E+000  0.000000000000E+000  0.000000000000E+000
    0.000000000000E+000  0.000000000000E+000  0.000000000000E+000  0.000000000000E+000  0.000000000000E+000 -3.846401513958E-002  0.000000000000E+000  0.000000000000E+000  0.000000000000E+000  0.000000000000E+000  0.000000000000E+000  0.000000000000E+000  0.000000000000E+000  3.846401513958E-002  0.000000000000E+000  0.000000000000E+000  0.000000000000E+000  0.000000000000E+000  0.000000000000E+000  0.000000000000E+000  0.000000000000E+000  0.000000000000E+000  0.000000000000E+000  0.000000000000E+000  0.000000000000E+000  0.000000000000E+000  0.000000000000E+000  0.000000000000E+000
    0.000000000000E+000  0.000000000000E+000  0.000000000000E+000  0.000000000000E+000  0.000000000000E+000  0.000000000000E+000 -7.692307692308E-002  0.000000000000E+000  0.000000000000E+000  0.000000000000E+000  0.000000000000E+000  0.000000000000E+000  0.000000000000E+000  0.000000000000E+000  7.692307692308E-002  0.000000000000E+000  0.000000000000E+000  0.000000000000E+000  0.000000000000E+000  0.000000000000E+000  0.000000000000E+000  0.000000000000E+000  0.000000000000E+000  0.000000000000E+000  0.000000000000E+000  0.000000000000E+000  0.000000000000E+000  0.000000000000E+000
    0.000000000000E+000  0.000000000000E+000  0.000000000000E+000  0.000000000000E+000  0.000000000000E+000  0.000000000000E+000  0.000000000000E+000 -7.692307692308E-002  0.000000000000E+000  0.000000000000E+000  0.000000000000E+000  0.000000000000E+000  0.000000000000E+000  0.000000000000E+000  0.000000000000E+000  7.692307692308E-002  0.000000000000E+000  0.000000000000E+000  0.000000000000E+000  0.000000000000E+000  0.000000000000E+000  0.000000000000E+000  0.000000000000E+000  0.000000000000E+000  0.000000000000E+000  0.000000000000E+000  0.000000000000E+000  0.000000000000E+000
    0.000000000000E+000  0.000000000000E+000  0.000000000000E+000  0.000000000000E+000  0.000000000000E+000  0.000000000000E+000  0.000000000000E+000  0.000000000000E+000 -1.000000000000E-002  0.000000000000E+000  0.000000000000E+000  0.000000000000E+000  0.000000000000E+000  0.000000000000E+000  0.000000000000E+000  0.000000000000E+000  0.000000000000E+000  0.000000000000E+000  0.000000000000E+000  0.000000000000E+000  0.000000000000E+000  0.000000000000E+000  0.000000000000E+000  0.000000000000E+000  0.000000000000E+000  0.000000000000E+000  0.000000000000E+000  0.000000000000E+000
    0.000000000000E+000  0.000000000000E+000  0.000000000000E+000  0.000000000000E+000  0.000000000000E+000  0.000000000000E+000  0.000000000000E+000  0.000000000000E+000  0.000000000000E+000 -1.000000000000E-002  0.000000000000E+000  0.000000000000E+000  0.000000000000E+000  0.000000000000E+000  0.000000000000E+000  0.000000000000E+000  0.000000000000E+000  0.000000000000E+000  0.000000000000E+000  0.000000000000E+000  0.000000000000E+000  0.000000000000E+000  0.000000000000E+000  0.000000000000E+000  0.000000000000E+000  0.000000000000E+000  0.000000000000E+000  0.000000000000E+000
    0.000000000000E+000  0.000000000000E+000  0.000000000000E+000  0.000000000000E+000  0.000000000000E+000  0.000000000000E+000  0.000000000000E+000  0.000000000000E+000  0.000000000000E+000  0.000000000000E+000 -1.000000000000E-002  0.000000000000E+000  0.000000000000E+000  0.000000000000E+000  0.000000000000E+000  0.000000000000E+000  0.000000000000E+000  0.000000000000E+000  0.000000000000E+000  0.000000000000E+000  0.000000000000E+000  0.000000000000E+000  0.000000000000E+000  0.000000000000E+000  0.000000000000E+000  0.000000000000E+000  0.000000000000E+000  0.000000000000E+000
    0.000000000000E+000  0.000000000000E+000  0.000000000000E+000  0.000000000000E+000  0.000000000000E+000  0.000000000000E+000  0.000000000000E+000  0.000000000000E+000  0.000000000000E+000  0.000000000000E+000  0.000000000000E+000 -1.000000000000E-002  0.000000000000E+000  0.000000000000E+000  0.000000000000E+000  0.000000000000E+000  0.000000000000E+000  0.000000000000E+000  0.000000000000E+000  0.000000000000E+000  0.000000000000E+000  0.000000000000E+000  0.000000000000E+000  0.000000000000E+000  0.000000000000E+000  0.000000000000E+000  0.000000000000E+000  0.000000000000E+000
    0.000000000000E+000  0.000000000000E+000  0.000000000000E+000  0.000000000000E+000  0.000000000000E+000  0.000000000000E+000  0.000000000000E+000  0.000000000000E+000  0.000000000000E+000  0.000000000000E+000  0.000000000000E+000  0.000000000000E+000 -1.000000000000E-002  0.000000000000E+000  0.000000000000E+000  0.000000000000E+000  0.000000000000E+000  0.000000000000E+000  0.000000000000E+000  0.000000000000E+000  0.000000000000E+000  0.000000000000E+000  0.000000000000E+000  0.000000000000E+000  0.000000000000E+000  0.000000000000E+000  0.000000000000E+000  0.000000000000E+000
    0.000000000000E+000  0.000000000000E+000  0.000000000000E+000  0.000000000000E+000  0.000000000000E+000  0.000000000000E+000  0.000000000000E+000  0.000000000000E+000  0.000000000000E+000  0.000000000000E+000  0.000000000000E+000  0.000000000000E+000  0.000000000000E+000 -1.000000000000E-002  0.000000000000E+000  0.000000000000E+000  0.000000000000E+000  0.000000000000E+000  0.000000000000E+000  0.000000000000E+000  0.000000000000E+000  0.000000000000E+000  0.000000000000E+000  0.000000000000E+000  0.000000000000E+000  0.000000000000E+000  0.000000000000E+000  0.000000000000E+000
    0.000000000000E+000  0.000000000000E+000  0.000000000000E+000  0.000000000000E+000  0.000000000000E+000  0.000000000000E+000  0.000000000000E+000  0.000000000000E+000  0.000000000000E+000  0.000000000000E+000  0.000000000000E+000  0.000000000000E+000  0.000000000000E+000  0.000000000000E+000 -1.000000000000E-002  0.000000000000E+000  0.000000000000E+000  0.000000000000E+000  0.000000000000E+000  0.000000000000E+000  0.000000000000E+000  0.000000000000E+000  0.000000000000E+000  0.000000000000E+000  0.000000000000E+000  0.000000000000E+000  0.000000000000E+000  0.000000000000E+000
    0.000000000000E+000  0.000000000000E+000  0.000000000000E+000  0.000000000000E+000  0.000000000000E+000  0.000000000000E+000  0.000000000000E+000  0.000000000000E+000  0.000000000000E+000  0.000000000000E+000  0.000000000000E+000  0.000000000000E+000  0.000000000000E+000  0.000000000000E+000  0.000000000000E+000 -1.000000000000E-002  0.000000000000E+000  0.000000000000E+000  0.000000000000E+000  0.000000000000E+000  0.000000000000E+000  0.000000000000E+000  0.000000000000E+000  0.000000000000E+000  0.000000000000E+000  0.000000000000E+000  0.000000000000E+000  0.000000000000E+000
    0.000000000000E+000  0.000000000000E+000  1.852416334361E-002 -7.199116042867E-003  0.000000000000E+000  0.000000000000E+000  0.000000000000E+000  0.000000000000E+000  0.000000000000E+000  0.000000000000E+000  0.000000000000E+000  0.000000000000E+000  0.000000000000E+000  0.000000000000E+000  0.000000000000E+000  0.000000000000E+000 -2.260923186893E+000  0.000000000000E+000  0.000000000000E+000  0.000000000000E+000  0.000000000000E+000  0.000000000000E+000  0.000000000000E+000  0.000000000000E+000  0.000000000000E+000  0.000000000000E+000  0.000000000000E+000  0.000000000000E+000
    0.000000000000E+000  0.000000000000E+000  1.628366699756E-001 -6.552469226848E-002  0.000000000000E+000  0.000000000000E+000  0.000000000000E+000  0.000000000000E+000  0.000000000000E+000  0.000000000000E+000  0.000000000000E+000  0.000000000000E+000  0.000000000000E+000  0.000000000000E+000  0.000000000000E+000  0.000000000000E+000  0.000000000000E+000 -8.559209207524E+000  0.000000000000E+000  0.000000000000E+000  0.000000000000E+000  0.000000000000E+000  0.000000000000E+000  0.000000000000E+000  0.000000000000E+000  0.000000000000E+000  0.000000000000E+000  0.000000000000E+000
    0.000000000000E+000  0.000000000000E+000  3.862682200482E-003  9.407944702124E-003  0.000000000000E+000  0.000000000000E+000  0.000000000000E+000  0.000000000000E+000  0.000000000000E+000  0.000000000000E+000  0.000000000000E+000  0.000000000000E+000  0.000000000000E+000  0.000000000000E+000  0.000000000000E+000  0.000000000000E+000  7.293500708986E+001  7.293500708986E+001 -9.499677255854E+000  0.000000000000E+000  0.000000000000E+000  0.000000000000E+000  0.000000000000E+000  0.000000000000E+000  0.000000000000E+000  0.000000000000E+000  0.000000000000E+000  0.000000000000E+000
    0.000000000000E+000  0.000000000000E+000 -1.505075802009E-003 -3.665761039361E-003  0.000000000000E+000  0.000000000000E+000  0.000000000000E+000  0.000000000000E+000  0.000000000000E+000  0.000000000000E+000  0.000000000000E+000  0.000000000000E+000  0.000000000000E+000  0.000000000000E+000  0.000000000000E+000  0.000000000000E+000  0.000000000000E+000  0.000000000000E+000 -1.777783530331E+000 -5.383150444983E+000  0.000000000000E+000  0.000000000000E+000  0.000000000000E+000  0.000000000000E+000  0.000000000000E+000  0.000000000000E+000  0.000000000000E+000  0.000000000000E+000
    0.000000000000E+000  0.000000000000E+000  0.000000000000E+000  0.000000000000E+000  2.742491271143E-002 -6.615647373037E-003  0.000000000000E+000  0.000000000000E+000  0.000000000000E+000  0.000000000000E+000  0.000000000000E+000  0.000000000000E+000  0.000000000000E+000  0.000000000000E+000  0.000000000000E+000  0.000000000000E+000  0.000000000000E+000  0.000000000000E+000  0.000000000000E+000  0.000000000000E+000 -5.509763227312E+000  0.000000000000E+000  0.000000000000E+000  0.000000000000E+000  0.000000000000E+000  0.000000000000E+000  0.000000000000E+000  0.000000000000E+000
    0.000000000000E+000  0.000000000000E+000  0.000000000000E+000  0.000000000000E+000  2.403238601292E-001 -6.533848155270E-002  0.000000000000E+000  0.000000000000E+000  0.000000000000E+000  0.000000000000E+000  0.000000000000E+000  0.000000000000E+000  0.000000000000E+000  0.000000000000E+000  0.000000000000E+000  0.000000000000E+000  0.000000000000E+000  0.000000000000E+000  0.000000000000E+000  0.000000000000E+000  0.000000000000E+000 -2.085838936054E+001  0.000000000000E+000  0.000000000000E+000  0.000000000000E+000  0.000000000000E+000  0.000000000000E+000  0.000000000000E+000
    0.000000000000E+000  0.000000000000E+000  0.000000000000E+000  0.000000000000E+000  4.440716126401E-003  1.588056284418E-002  0.000000000000E+000  0.000000000000E+000  0.000000000000E+000  0.000000000000E+000  0.000000000000E+000  0.000000000000E+000  0.000000000000E+000  0.000000000000E+000  0.000000000000E+000  0.000000000000E+000  0.000000000000E+000  0.000000000000E+000  0.000000000000E+000  0.000000000000E+000  1.777391741467E+002  1.777391741467E+002 -2.315026566098E+001  0.000000000000E+000  0.000000000000E+000  0.000000000000E+000  0.000000000000E+000  0.000000000000E+000
    0.000000000000E+000  0.000000000000E+000  0.000000000000E+000  0.000000000000E+000 -2.610158594810E-003 -9.334257452784E-003  0.000000000000E+000  0.000000000000E+000  0.000000000000E+000  0.000000000000E+000  0.000000000000E+000  0.000000000000E+000  0.000000000000E+000  0.000000000000E+000  0.000000000000E+000  0.000000000000E+000  0.000000000000E+000  0.000000000000E+000  0.000000000000E+000  0.000000000000E+000  0.000000000000E+000  0.000000000000E+000 -5.152361953670E+000 -1.311848387455E+001  0.000000000000E+000  0.000000000000E+000  0.000000000000E+000  0.000000000000E+000