
Linearized model: Predictions were generated on 11-Oct-2025 at 16:01:34 using OpenFAST, compiled on Oct 10 2025 at 17:31:28 as a 64-bit application using double precision at commit v4.1.2-727-g39496902
 linked with  NWTC Subroutine Library; ElastoDyn; InflowWind; AeroDyn; ServoDyn

Description from the FAST input file: NREL 5.0 MW Baseline Wind Turbine (Onshore), Linearization with AeroDyn + ED

Simulation information:
   Simulation time:                     1.0000 s
   Rotor Speed:                         1.2798 rad/s
   Azimuth:                             1.2699 rad
   Wind Speed:                          8.0000 m/s
   Number of continuous states:       260
   Number of discrete states:           0
   Number of constraint states:         0
   Number of inputs:                   72
   Number of outputs:                  38
   Jacobians included in this file?    No

Order of continuous states:
   Row/Column Operating Point                                                   Rotating Frame? Derivative Order Description
   ---------- ---------------                                                   --------------- ---------------- -----------
          1    2.059370693483E-001                                                     F               2         ED 1st tower fore-aft bending mode DOF (internal DOF index = DOF_TFA1), m
          2   -5.127302565033E-003                                                     F               2         ED 1st tower side-to-side bending mode DOF (internal DOF index = DOF_TSS1), m
          3   -6.275551520852E-005                                                     F               2         ED 2nd tower fore-aft bending mode DOF (internal DOF index = DOF_TFA2), m
          4    1.723662787682E-005                                                     F               2         ED 2nd tower side-to-side bending mode DOF (internal DOF index = DOF_TSS2), m
          5    5.064502946564E-005                                                     F               2         ED Nacelle yaw DOF (internal DOF index = DOF_Yaw), rad
          6    5.982239106167E+000                                                     F               2         ED Variable speed generator DOF (internal DOF index = DOF_GeAz), rad
          7    2.931624963222E-005                                                     F               2         ED Drivetrain rotational-flexibility DOF (internal DOF index = DOF_DrTr), rad
          8    3.814648045971E+000                                                     T               2         ED 1st flapwise bending-mode DOF of blade 1 (internal DOF index = DOF_BF(1,1)), m
          9    4.021879683483E+000                                                     T               2         ED 1st flapwise bending-mode DOF of blade 2 (internal DOF index = DOF_BF(2,1)), m
         10    3.637348286258E+000                                                     T               2         ED 1st flapwise bending-mode DOF of blade 3 (internal DOF index = DOF_BF(3,1)), m
         11   -1.673179233289E-001                                                     T               2         ED 1st edgewise bending-mode DOF of blade 1 (internal DOF index = DOF_BE(1,1)), m
         12    5.888882541843E-001                                                     T               2         ED 1st edgewise bending-mode DOF of blade 2 (internal DOF index = DOF_BE(2,1)), m
         13    1.923106999594E-001                                                     T               2         ED 1st edgewise bending-mode DOF of blade 3 (internal DOF index = DOF_BE(3,1)), m
         14    5.121984386208E-002                                                     T               2         ED 2nd flapwise bending-mode DOF of blade 1 (internal DOF index = DOF_BF(1,2)), m
         15    1.775652193398E-001                                                     T               2         ED 2nd flapwise bending-mode DOF of blade 2 (internal DOF index = DOF_BF(2,2)), m
         16    1.375523875377E-001                                                     T               2         ED 2nd flapwise bending-mode DOF of blade 3 (internal DOF index = DOF_BF(3,2)), m
         17    4.685237723039E-001                                                     F               2         ED First time derivative of 1st tower fore-aft bending mode DOF (internal DOF index = DOF_TFA1), m/s
         18    1.805499564055E-002                                                     F               2         ED First time derivative of 1st tower side-to-side bending mode DOF (internal DOF index = DOF_TSS1), m/s
         19    1.245609604035E-003                                                     F               2         ED First time derivative of 2nd tower fore-aft bending mode DOF (internal DOF index = DOF_TFA2), m/s
         20    1.034421308729E-004                                                     F               2         ED First time derivative of 2nd tower side-to-side bending mode DOF (internal DOF index = DOF_TSS2), m/s
         21   -1.848567802570E-004                                                     F               2         ED First time derivative of Nacelle yaw DOF (internal DOF index = DOF_Yaw), rad/s
         22    1.277419096461E+000                                                     F               2         ED First time derivative of Variable speed generator DOF (internal DOF index = DOF_GeAz), rad/s
         23    2.387816293528E-003                                                     F               2         ED First time derivative of Drivetrain rotational-flexibility DOF (internal DOF index = DOF_DrTr), rad/s
         24   -3.504563245661E-001                                                     T               2         ED First time derivative of 1st flapwise bending-mode DOF of blade 1 (internal DOF index = DOF_BF(1,1)), m/s
         25   -1.206503378326E+000                                                     T               2         ED First time derivative of 1st flapwise bending-mode DOF of blade 2 (internal DOF index = DOF_BF(2,1)), m/s
         26   -1.597162771149E+000                                                     T               2         ED First time derivative of 1st flapwise bending-mode DOF of blade 3 (internal DOF index = DOF_BF(3,1)), m/s
         27    1.623175470238E-001                                                     T               2         ED First time derivative of 1st edgewise bending-mode DOF of blade 1 (internal DOF index = DOF_BE(1,1)), m/s
         28   -1.245855607234E+000                                                     T               2         ED First time derivative of 1st edgewise bending-mode DOF of blade 2 (internal DOF index = DOF_BE(2,1)), m/s
         29    3.438566836464E-001                                                     T               2         ED First time derivative of 1st edgewise bending-mode DOF of blade 3 (internal DOF index = DOF_BE(3,1)), m/s
         30   -1.503039838007E-001                                                     T               2         ED First time derivative of 2nd flapwise bending-mode DOF of blade 1 (internal DOF index = DOF_BF(1,2)), m/s
         31   -4.824727770677E-001                                                     T               2         ED First time derivative of 2nd flapwise bending-mode DOF of blade 2 (internal DOF index = DOF_BF(2,2)), m/s
         32   -2.066953137051E-001                                                     T               2         ED First time derivative of 2nd flapwise bending-mode DOF of blade 3 (internal DOF index = DOF_BF(3,2)), m/s
         33   -7.916168239932E+000                                                     T               2         AD vind (axial) at blade 1, node 1, m/s
         34    0.000000000000E+000                                                     T               2         AD vind (tangential) at blade 1, node 1, m/s
         35    0.000000000000E+000                                                     T               2         AD vind (axial) at blade 1, node 2, m/s
         36    0.000000000000E+000                                                     T               2         AD vind (tangential) at blade 1, node 2, m/s
         37    0.000000000000E+000                                                     T               2         AD vind (axial) at blade 1, node 3, m/s
         38    0.000000000000E+000                                                     T               2         AD vind (tangential) at blade 1, node 3, m/s
         39    0.000000000000E+000                                                     T               2         AD vind (axial) at blade 1, node 4, m/s
         40    0.000000000000E+000                                                     T               2         AD vind (tangential) at blade 1, node 4, m/s
         41   -2.217835054016E+000                                                     T               2         AD vind (axial) at blade 1, node 5, m/s
         42    8.017196552352E-001                                                     T               2         AD vind (tangential) at blade 1, node 5, m/s
         43   -2.072716536572E+000                                                     T               2         AD vind (axial) at blade 1, node 6, m/s
         44    5.831910629122E-001                                                     T               2         AD vind (tangential) at blade 1, node 6, m/s
         45   -1.839508727639E+000                                                     T               2         AD vind (axial) at blade 1, node 7, m/s
         46    4.312687079151E-001                                                     T               2         AD vind (tangential) at blade 1, node 7, m/s
         47   -1.867933260336E+000                                                     T               2         AD vind (axial) at blade 1, node 8, m/s
         48    3.615004114999E-001                                                     T               2         AD vind (tangential) at blade 1, node 8, m/s
         49   -2.270329442952E+000                                                     T               2         AD vind (axial) at blade 1, node 9, m/s
         50    3.478717957600E-001                                                     T               2         AD vind (tangential) at blade 1, node 9, m/s
         51   -2.435617861056E+000                                                     T               2         AD vind (axial) at blade 1, node 10, m/s
         52    3.129030677443E-001                                                     T               2         AD vind (tangential) at blade 1, node 10, m/s
         53   -3.016378450297E+000                                                     T               2         AD vind (axial) at blade 1, node 11, m/s
         54    3.008074734786E-001                                                     T               2         AD vind (tangential) at blade 1, node 11, m/s
         55   -3.446930407227E+000                                                     T               2         AD vind (axial) at blade 1, node 12, m/s
         56    2.786094317598E-001                                                     T               2         AD vind (tangential) at blade 1, node 12, m/s
         57   -3.432657016682E+000                                                     T               2         AD vind (axial) at blade 1, node 13, m/s
         58    2.459418723228E-001                                                     T               2         AD vind (tangential) at blade 1, node 13, m/s
         59   -3.710482108250E+000                                                     T               2         AD vind (axial) at blade 1, node 14, m/s
         60    2.268826387267E-001                                                     T               2         AD vind (tangential) at blade 1, node 14, m/s
         61   -4.049456470502E+000                                                     T               2         AD vind (axial) at blade 1, node 15, m/s
         62    2.084050213042E-001                                                     T               2         AD vind (tangential) at blade 1, node 15, m/s
         63   -4.235337564915E+000                                                     T               2         AD vind (axial) at blade 1, node 16, m/s
         64    1.990632723051E-001                                                     T               2         AD vind (tangential) at blade 1, node 16, m/s
         65   -4.240998885870E+000                                                     T               2         AD vind (axial) at blade 1, node 17, m/s
         66    1.926421812735E-001                                                     T               2         AD vind (tangential) at blade 1, node 17, m/s
         67   -3.841056645679E+000                                                     T               2         AD vind (axial) at blade 1, node 18, m/s
         68    1.801104435995E-001                                                     T               2         AD vind (tangential) at blade 1, node 18, m/s
         69   -6.074104018347E+000                                                     T               2         AD vind (axial) at blade 1, node 19, m/s
         70    0.000000000000E+000                                                     T               2         AD vind (tangential) at blade 1, node 19, m/s
         71   -7.714832137965E+000                                                     T               2         AD vind (axial) at blade 2, node 1, m/s
         72    0.000000000000E+000                                                     T               2         AD vind (tangential) at blade 2, node 1, m/s
         73    0.000000000000E+000                                                     T               2         AD vind (axial) at blade 2, node 2, m/s
         74    0.000000000000E+000                                                     T               2         AD vind (tangential) at blade 2, node 2, m/s
         75    0.000000000000E+000                                                     T               2         AD vind (axial) at blade 2, node 3, m/s
         76    0.000000000000E+000                                                     T               2         AD vind (tangential) at blade 2, node 3, m/s
         77    0.000000000000E+000                                                     T               2         AD vind (axial) at blade 2, node 4, m/s
         78    0.000000000000E+000                                                     T               2         AD vind (tangential) at blade 2, node 4, m/s
         79   -2.194189450491E+000                                                     T               2         AD vind (axial) at blade 2, node 5, m/s
         80    7.689413864229E-001                                                     T               2         AD vind (tangential) at blade 2, node 5, m/s
         81   -2.048419532223E+000                                                     T               2         AD vind (axial) at blade 2, node 6, m/s
         82    5.655545986493E-001                                                     T               2         AD vind (tangential) at blade 2, node 6, m/s
         83   -1.822942800361E+000                                                     T               2         AD vind (axial) at blade 2, node 7, m/s
         84    4.214818529347E-001                                                     T               2         AD vind (tangential) at blade 2, node 7, m/s
         85   -1.861113205797E+000                                                     T               2         AD vind (axial) at blade 2, node 8, m/s
         86    3.562908257848E-001                                                     T               2         AD vind (tangential) at blade 2, node 8, m/s
         87   -2.276303088259E+000                                                     T               2         AD vind (axial) at blade 2, node 9, m/s
         88    3.458323218369E-001                                                     T               2         AD vind (tangential) at blade 2, node 9, m/s
         89   -2.446216947854E+000                                                     T               2         AD vind (axial) at blade 2, node 10, m/s
         90    3.128399518842E-001                                                     T               2         AD vind (tangential) at blade 2, node 10, m/s
         91   -3.031014582383E+000                                                     T               2         AD vind (axial) at blade 2, node 11, m/s
         92    3.025544226403E-001                                                     T               2         AD vind (tangential) at blade 2, node 11, m/s
         93   -3.457583675822E+000                                                     T               2         AD vind (axial) at blade 2, node 12, m/s
         94    2.818381178075E-001                                                     T               2         AD vind (tangential) at blade 2, node 12, m/s
         95   -3.426052991299E+000                                                     T               2         AD vind (axial) at blade 2, node 13, m/s
         96    2.504824533064E-001                                                     T               2         AD vind (tangential) at blade 2, node 13, m/s
         97   -3.679040395663E+000                                                     T               2         AD vind (axial) at blade 2, node 14, m/s
         98    2.328106636817E-001                                                     T               2         AD vind (tangential) at blade 2, node 14, m/s
         99   -3.932692105837E+000                                                     T               2         AD vind (axial) at blade 2, node 15, m/s
        100    2.171962290082E-001                                                     T               2         AD vind (tangential) at blade 2, node 15, m/s
        101   -3.972529982463E+000                                                     T               2         AD vind (axial) at blade 2, node 16, m/s
        102    2.106153368211E-001                                                     T               2         AD vind (tangential) at blade 2, node 16, m/s
        103   -3.917451895231E+000                                                     T               2         AD vind (axial) at blade 2, node 17, m/s
        104    1.871161239802E-001                                                     T               2         AD vind (tangential) at blade 2, node 17, m/s
        105   -3.557083870375E+000                                                     T               2         AD vind (axial) at blade 2, node 18, m/s
        106    1.711078561234E-001                                                     T               2         AD vind (tangential) at blade 2, node 18, m/s
        107   -6.358897424050E+000                                                     T               2         AD vind (axial) at blade 2, node 19, m/s
        108    0.000000000000E+000                                                     T               2         AD vind (tangential) at blade 2, node 19, m/s
        109   -7.847597358064E+000                                                     T               2         AD vind (axial) at blade 3, node 1, m/s
        110    0.000000000000E+000                                                     T               2         AD vind (tangential) at blade 3, node 1, m/s
        111    0.000000000000E+000                                                     T               2         AD vind (axial) at blade 3, node 2, m/s
        112    0.000000000000E+000                                                     T               2         AD vind (tangential) at blade 3, node 2, m/s
        113    0.000000000000E+000                                                     T               2         AD vind (axial) at blade 3, node 3, m/s
        114    0.000000000000E+000                                                     T               2         AD vind (tangential) at blade 3, node 3, m/s
        115    0.000000000000E+000                                                     T               2         AD vind (axial) at blade 3, node 4, m/s
        116    0.000000000000E+000                                                     T               2         AD vind (tangential) at blade 3, node 4, m/s
        117   -2.237498080558E+000                                                     T               2         AD vind (axial) at blade 3, node 5, m/s
        118    8.527577742841E-001                                                     T               2         AD vind (tangential) at blade 3, node 5, m/s
        119   -2.113398520286E+000                                                     T               2         AD vind (axial) at blade 3, node 6, m/s
        120    6.155212825641E-001                                                     T               2         AD vind (tangential) at blade 3, node 6, m/s
        121   -1.875099589887E+000                                                     T               2         AD vind (axial) at blade 3, node 7, m/s
        122    4.512507449441E-001                                                     T               2         AD vind (tangential) at blade 3, node 7, m/s
        123   -1.891401392511E+000                                                     T               2         AD vind (axial) at blade 3, node 8, m/s
        124    3.741921942210E-001                                                     T               2         AD vind (tangential) at blade 3, node 8, m/s
        125   -2.274152834712E+000                                                     T               2         AD vind (axial) at blade 3, node 9, m/s
        126    3.560320953708E-001                                                     T               2         AD vind (tangential) at blade 3, node 9, m/s
        127   -2.432524256440E+000                                                     T               2         AD vind (axial) at blade 3, node 10, m/s
        128    3.189594311565E-001                                                     T               2         AD vind (tangential) at blade 3, node 10, m/s
        129   -2.994732670011E+000                                                     T               2         AD vind (axial) at blade 3, node 11, m/s
        130    3.058586198084E-001                                                     T               2         AD vind (tangential) at blade 3, node 11, m/s
        131   -3.418984287856E+000                                                     T               2         AD vind (axial) at blade 3, node 12, m/s
        132    2.830995963303E-001                                                     T               2         AD vind (tangential) at blade 3, node 12, m/s
        133   -3.398814781162E+000                                                     T               2         AD vind (axial) at blade 3, node 13, m/s
        134    2.502275190753E-001                                                     T               2         AD vind (tangential) at blade 3, node 13, m/s
        135   -3.672123869505E+000                                                     T               2         AD vind (axial) at blade 3, node 14, m/s
        136    2.314873144916E-001                                                     T               2         AD vind (tangential) at blade 3, node 14, m/s
        137   -3.986082499003E+000                                                     T               2         AD vind (axial) at blade 3, node 15, m/s
        138    2.144054123519E-001                                                     T               2         AD vind (tangential) at blade 3, node 15, m/s
        139   -4.104379217577E+000                                                     T               2         AD vind (axial) at blade 3, node 16, m/s
        140    2.067846002312E-001                                                     T               2         AD vind (tangential) at blade 3, node 16, m/s
        141   -4.090783973811E+000                                                     T               2         AD vind (axial) at blade 3, node 17, m/s
        142    2.021745510496E-001                                                     T               2         AD vind (tangential) at blade 3, node 17, m/s
        143   -3.726809326389E+000                                                     T               2         AD vind (axial) at blade 3, node 18, m/s
        144    1.712159065103E-001                                                     T               2         AD vind (tangential) at blade 3, node 18, m/s
        145   -6.339595581517E+000                                                     T               2         AD vind (axial) at blade 3, node 19, m/s
        146    0.000000000000E+000                                                     T               2         AD vind (tangential) at blade 3, node 19, m/s
        147   -3.176054548765E+000                                                     T               2         AD First time derivative of vind (axial) at blade 1, node 1, m/s/s
        148    0.000000000000E+000                                                     T               2         AD First time derivative of vind (tangential) at blade 1, node 1, m/s/s
        149    0.000000000000E+000                                                     T               2         AD First time derivative of vind (axial) at blade 1, node 2, m/s/s
        150    0.000000000000E+000                                                     T               2         AD First time derivative of vind (tangential) at blade 1, node 2, m/s/s
        151    0.000000000000E+000                                                     T               2         AD First time derivative of vind (axial) at blade 1, node 3, m/s/s
        152    0.000000000000E+000                                                     T               2         AD First time derivative of vind (tangential) at blade 1, node 3, m/s/s
        153    0.000000000000E+000                                                     T               2         AD First time derivative of vind (axial) at blade 1, node 4, m/s/s
        154    0.000000000000E+000                                                     T               2         AD First time derivative of vind (tangential) at blade 1, node 4, m/s/s
        155   -8.915983987041E-001                                                     T               2         AD First time derivative of vind (axial) at blade 1, node 5, m/s/s
        156    3.239724578113E-001                                                     T               2         AD First time derivative of vind (tangential) at blade 1, node 5, m/s/s
        157   -8.353403647423E-001                                                     T               2         AD First time derivative of vind (axial) at blade 1, node 6, m/s/s
        158    2.362243058253E-001                                                     T               2         AD First time derivative of vind (tangential) at blade 1, node 6, m/s/s
        159   -7.432523090027E-001                                                     T               2         AD First time derivative of vind (axial) at blade 1, node 7, m/s/s
        160    1.752516481550E-001                                                     T               2         AD First time derivative of vind (tangential) at blade 1, node 7, m/s/s
        161   -7.558793160905E-001                                                     T               2         AD First time derivative of vind (axial) at blade 1, node 8, m/s/s
        162    1.473557180508E-001                                                     T               2         AD First time derivative of vind (tangential) at blade 1, node 8, m/s/s
        163   -9.174769876393E-001                                                     T               2         AD First time derivative of vind (axial) at blade 1, node 9, m/s/s
        164    1.421166679891E-001                                                     T               2         AD First time derivative of vind (tangential) at blade 1, node 9, m/s/s
        165   -9.852420131658E-001                                                     T               2         AD First time derivative of vind (axial) at blade 1, node 10, m/s/s
        166    1.285513493430E-001                                                     T               2         AD First time derivative of vind (tangential) at blade 1, node 10, m/s/s
        167   -1.215189075398E+000                                                     T               2         AD First time derivative of vind (axial) at blade 1, node 11, m/s/s
        168    1.244807893256E-001                                                     T               2         AD First time derivative of vind (tangential) at blade 1, node 11, m/s/s
        169   -1.388001830805E+000                                                     T               2         AD First time derivative of vind (axial) at blade 1, node 12, m/s/s
        170    1.164120472242E-001                                                     T               2         AD First time derivative of vind (tangential) at blade 1, node 12, m/s/s