
Predictions were generated on 22-Dec-2025 at 21:56:08 using FAST.Farm, compiled on Dec 22 2025 at 21:41:16 as a 64-bit application using double precision at commit -128-NOTFOUND and with OpenMP
 linked with  NWTC Subroutine Library

Description from the FAST.Farm input file: Simulation with one turbine using precursor VTK

Time                	W1VAmbx             	RtVRelT1            	YawErrT1            	TIAmbT1             	CtT1N02             	CtT1N03             	CtT1N04             	CtT1N05             	CtT1N06             	WkAxsXT1D1          	WkAxsXT1D2          	WkAxsYT1D1          	WkAxsYT1D2          	WkAxsZT1D1          	WkAxsZT1D2          	WkPosXT1D1          	WkPosXT1D2          	WkPosYT1D1          	WkPosYT1D2          	WkPosZT1D1          	WkPosZT1D2          	WkDfVxT1N01D1       	WkDfVxT1N02D1       	WkDfVxT1N03D1       	WkDfVxT1N04D1       	WkDfVxT1N05D1       	WkDfVxT1N06D1       	WkDfVxT1N07D1       	WkDfVxT1N01D2       	WkDfVxT1N02D2       	WkDfVxT1N03D2       	WkDfVxT1N04D2       	WkDfVxT1N05D2       	WkDfVxT1N06D2       	WkDfVxT1N07D2       	WkDfVrT1N01D1       	WkDfVrT1N02D1       	WkDfVrT1N03D1       	WkDfVrT1N04D1       	WkDfVrT1N05D1       	WkDfVrT1N06D1       	WkDfVrT1N07D1       	WkDfVrT1N01D2       	WkDfVrT1N02D2       	WkDfVrT1N03D2       	WkDfVrT1N04D2       	WkDfVrT1N05D2       	WkDfVrT1N06D2       	WkDfVrT1N07D2       
(s)                 	(m/s)        	(m/s)        	(deg)        	(percent)    	(-)          	(-)          	(-)          	(-)          	(-)          	(-)          	(-)          	(-)          	(-)          	(-)          	(-)          	(m)          	(m)          	(m)          	(m)          	(m)          	(m)          	(m/s)        	(m/s)        	(m/s)        	(m/s)        	(m/s)        	(m/s)        	(m/s)        	(m/s)        	(m/s)        	(m/s)        	(m/s)        	(m/s)        	(m/s)        	(m/s)        	(m/s)        	(m/s)        	(m/s)        	(m/s)        	(m/s)        	(m/s)        	(m/s)        	(m/s)        	(m/s)        	(m/s)        	(m/s)        	(m/s)        	(m/s)        	(m/s)        
    0.0000	8.11987972	8.02585316	0.262263149	9.53005409	0.464708060	0.742972195	0.846820474	-0.246556563E-3	-0.102885929E-5	0.00000000	0.00000000	0.00000000	0.00000000	0.00000000	0.00000000	0.00000000	0.00000000	0.00000000	0.00000000	0.00000000	0.00000000	0.00000000	0.00000000	0.00000000	0.00000000	0.00000000	0.00000000	0.00000000	0.00000000	0.00000000	0.00000000	0.00000000	0.00000000	0.00000000	0.00000000	0.00000000	0.00000000	0.00000000	0.00000000	0.00000000	0.00000000	0.00000000	0.00000000	0.00000000	0.00000000	0.00000000	0.00000000	0.00000000	0.00000000
    3.0000	7.77075338	8.29220581	1.15139186	9.42936897	0.449937224	0.740683138	0.812125623	-0.236812077E-3	-0.988196462E-6	0.00000000	0.00000000	0.00000000	0.00000000	0.00000000	0.00000000	0.00000000	0.00000000	0.00000000	0.00000000	0.00000000	0.00000000	0.00000000	0.00000000	0.00000000	0.00000000	0.00000000	0.00000000	0.00000000	0.00000000	0.00000000	0.00000000	0.00000000	0.00000000	0.00000000	0.00000000	0.00000000	0.00000000	0.00000000	0.00000000	0.00000000	0.00000000	0.00000000	0.00000000	0.00000000	0.00000000	0.00000000	0.00000000	0.00000000	0.00000000
    6.0000	7.48410130	8.11132908	1.89210367	9.35555744	0.460969090	0.750004530	0.834032834	-0.244224881E-3	-0.101912940E-5	0.00000000	0.00000000	0.00000000	0.00000000	0.00000000	0.00000000	0.00000000	0.00000000	0.00000000	0.00000000	0.00000000	0.00000000	0.00000000	0.00000000	0.00000000	0.00000000	0.00000000	0.00000000	0.00000000	0.00000000	0.00000000	0.00000000	0.00000000	0.00000000	0.00000000	0.00000000	0.00000000	0.00000000	0.00000000	0.00000000	0.00000000	0.00000000	0.00000000	0.00000000	0.00000000	0.00000000	0.00000000	0.00000000	0.00000000	0.00000000
    9.0000	7.38111782	7.94281197	2.25388479	9.50180626	0.469083607	0.765083015	0.849961460	-0.242975089E-3	-0.101391413E-5	0.00000000	0.00000000	0.00000000	0.00000000	0.00000000	0.00000000	0.00000000	0.00000000	0.00000000	0.00000000	0.00000000	0.00000000	0.00000000	0.00000000	0.00000000	0.00000000	0.00000000	0.00000000	0.00000000	0.00000000	0.00000000	0.00000000	0.00000000	0.00000000	0.00000000	0.00000000	0.00000000	0.00000000	0.00000000	0.00000000	0.00000000	0.00000000	0.00000000	0.00000000	0.00000000	0.00000000	0.00000000	0.00000000	0.00000000	0.00000000
   12.0000	7.53224373	7.79913187	3.55516863	9.55639744	0.450331926	0.746470034	0.883372545	-0.261777372E-3	-0.109237442E-5	0.00000000	0.00000000	0.00000000	0.00000000	0.00000000	0.00000000	0.00000000	0.00000000	0.00000000	0.00000000	0.00000000	0.00000000	0.00000000	0.00000000	0.00000000	0.00000000	0.00000000	0.00000000	0.00000000	0.00000000	0.00000000	0.00000000	0.00000000	0.00000000	0.00000000	0.00000000	0.00000000	0.00000000	0.00000000	0.00000000	0.00000000	0.00000000	0.00000000	0.00000000	0.00000000	0.00000000	0.00000000	0.00000000	0.00000000	0.00000000
   15.0000	7.24159527	7.55234766	1.71813536	9.41782761	0.446412235	0.734410107	0.916658401	-0.266331452E-3	-0.111137820E-5	0.00000000	0.00000000	0.00000000	0.00000000	0.00000000	0.00000000	0.00000000	0.00000000	0.00000000	0.00000000	0.00000000	0.00000000	0.00000000	0.00000000	0.00000000	0.00000000	0.00000000	0.00000000	0.00000000	0.00000000	0.00000000	0.00000000	0.00000000	0.00000000	0.00000000	0.00000000	0.00000000	0.00000000	0.00000000	0.00000000	0.00000000	0.00000000	0.00000000	0.00000000	0.00000000	0.00000000	0.00000000	0.00000000	0.00000000	0.00000000
   18.0000	7.00108099	7.40377760	2.04448724	9.48674202	0.464900136	0.768829942	0.902441084	-0.254875544E-3	-0.106357379E-5	0.996194720	0.00000000	0.00000000	0.00000000	-0.871557444E-1	0.00000000	1121.36536	0.00000000	1000.93158	0.00000000	88.6744308	0.00000000	-2.12832189	-2.64743757	-3.54958653	-3.43101239	-0.326560527	-0.206905627E-2	-0.663294296E-16	0.00000000	0.00000000	0.00000000	0.00000000	0.00000000	0.00000000	0.00000000	0.00000000	0.336752832E-1	0.246488024E-1	-0.946464539E-1	-0.158323064	-0.115620889	-0.621358715E-1	0.00000000	0.00000000	0.00000000	0.00000000	0.00000000	0.00000000	0.00000000
   21.0000	6.98257017	7.43276215	2.14118552	9.36302090	0.451256245	0.748600662	0.896977603	-0.256256812E-3	-0.106933771E-5	0.996194720	0.00000000	0.00000000	0.00000000	-0.871557444E-1	0.00000000	1121.37939	0.00000000	1000.87842	0.00000000	88.8353271	0.00000000	-2.22605896	-2.69003534	-3.54545212	-3.35149527	-0.343523175	-0.291666505E-2	-0.718514623E-16	0.00000000	0.00000000	0.00000000	0.00000000	0.00000000	0.00000000	0.00000000	0.00000000	0.309249870E-1	0.247666091E-1	-0.925033391E-1	-0.143594161	-0.103453591	-0.555385128E-1	0.00000000	0.00000000	0.00000000	0.00000000	0.00000000	0.00000000	0.00000000
   24.0000	7.01249695	7.32059288	0.562107146	9.25147152	0.451226592	0.741362691	0.942825675	-0.276131846E-3	-0.115227442E-5	0.996194720	0.00000000	0.00000000	0.00000000	-0.871557444E-1	0.00000000	1121.40967	0.00000000	1000.99957	0.00000000	89.1812439	0.00000000	-2.30698919	-2.72598457	-3.54244924	-3.28607655	-0.358545095	-0.373264123E-2	-0.680275122E-16	0.00000000	0.00000000	0.00000000	0.00000000	0.00000000	0.00000000	0.00000000	0.00000000	0.287990384E-1	0.246458314E-1	-0.903833061E-1	-0.132448509	-0.943185464E-1	-0.505755171E-1	0.00000000	0.00000000	0.00000000	0.00000000	0.00000000	0.00000000	0.00000000
   27.0000	7.32722998	7.09884834	1.10763955	8.99972725	0.452632099	0.754094541	0.941189587	-0.262052024E-3	-0.109352061E-5	0.996194720	0.996194720	0.00000000	0.00000000	-0.871557444E-1	-0.871557444E-1	1121.50757	1184.35669	1001.20953	1000.06067	90.2998581	85.8247070	-2.29462171	-2.72053170	-3.54297733	-3.29796553	-0.356869549	-0.358942361E-2	-0.674293680E-16	-2.58136630	-2.87244797	-3.52556300	-3.01793551	-0.395646542	-0.906907674E-2	-0.940875939E-15	0.00000000	0.290887281E-1	0.246957224E-1	-0.905469954E-1	-0.133591637	-0.951871127E-1	-0.510492660E-1	0.00000000	0.230194181E-1	0.219110455E-1	-0.823574215E-1	-0.103113659	-0.712669119E-1	-0.379511639E-1
   30.0000	7.49275112	7.07495165	0.861890793	9.53052235	0.456240982	0.739590883	0.953752756	-0.274429418E-3	-0.114517036E-5	0.996090472	0.996194720	-0.265972903E-4	0.00000000	-0.883392021E-1	-0.871557444E-1	1121.76147	1184.37415	999.814331	1000.03748	92.2669907	86.0243835	-2.31595373	-2.75519085	-3.59800720	-3.19481635	-0.302379459	-0.270372117E-2	0.532144810E-17	-2.62935853	-2.90210080	-3.52115536	-2.97935486	-0.407269031	-0.108428318E-1	-0.278253627E-14	0.00000000	0.299820509E-1	0.248585604E-1	-0.989465564E-1	-0.131211147	-0.944893658E-1	-0.507231206E-1	0.00000000	0.219080858E-1	0.209506173E-1	-0.795827806E-1	-0.976073742E-1	-0.668048635E-1	-0.354812145E-1
   33.0000	7.33954620	7.13968992	-0.961017072	10.1468010	0.451994598	0.744835854	0.934713066	-0.271815748E-3	-0.113426381E-5	0.996020973	0.996194720	-0.126068280E-4	0.00000000	-0.891194567E-1	-0.871557444E-1	1121.96106	1184.42456	998.996521	1000.09064	93.8931122	86.6015244	-2.32102585	-2.75707841	-3.57722712	-3.18894911	-0.310798556	-0.278408988E-2	-0.589827025E-16	-2.67399716	-2.92929554	-3.51734471	-2.94367838	-0.418103516	-0.125068808E-1	-0.584402208E-14	0.00000000	0.295593198E-1	0.233560707E-1	-0.933992341E-1	-0.127859429	-0.915012062E-1	-0.491093285E-1	0.00000000	0.208836328E-1	0.200991556E-1	-0.771771297E-1	-0.927668363E-1	-0.629137680E-1	-0.333224908E-1
   36.0000	6.89801264	7.11475945	-3.19359827	10.3602810	0.468409747	0.758180082	0.903838277	-0.261038600E-3	-0.108929157E-5	0.995992780	0.996194720	-0.259118860E-5	0.00000000	-0.894338638E-1	-0.871557444E-1	1122.03406	1184.52820	998.909729	1000.01996	94.4410248	87.7850342	-2.31301999	-2.75589824	-3.60018754	-3.26657534	-0.340863824	-0.315786200E-2	-0.687533335E-16	-2.70762777	-2.95010400	-3.51478648	-2.91721392	-0.426456958	-0.137999151E-1	-0.357420756E-14	0.00000000	0.303052887E-1	0.252580252E-1	-0.991281420E-1	-0.142040834	-0.102944411	-0.552521385E-1	0.00000000	0.201087650E-1	0.194407664E-1	-0.753568113E-1	-0.892363936E-1	-0.600951053E-1	-0.317542106E-1
   39.0000	6.66092968	7.17952299	-3.57952046	10.8481226	0.480565548	0.755152762	0.865403712	-0.240791313E-3	-0.100480145E-5	0.995976448	0.996188641	-0.801519491E-5	-0.154863824E-5	-0.896153897E-1	-0.872246549E-1	1122.08826	1184.79578	997.765381	998.744202	94.8974915	90.7863998	-2.24285722	-2.67993212	-3.52550292	-3.28887510	-0.360940874	-0.351299369E-2	-0.809799629E-16	-2.69976211	-2.94619536	-3.51868486	-2.92193413	-0.422015399	-0.132182157E-1	-0.264407306E-14	0.00000000	0.297333933E-1	0.258750580E-1	-0.958468914E-1	-0.143114224	-0.103437096	-0.554971099E-1	0.00000000	0.203595273E-1	0.196392257E-1	-0.760487467E-1	-0.899545029E-1	-0.606751218E-1	-0.320859477E-1
   42.0000	6.46116924	7.11579895	-4.66780567	10.9582930	0.465680003	0.764394939	0.889005959	-0.243236645E-3	-0.101500564E-5	0.995959342	0.996078134	0.251286310E-4	-0.288682641E-4	-0.898055509E-1	-0.884779170E-1	1122.23767	1185.07227	995.195007	997.214050	96.4009628	92.8663788	-2.12107825	-2.55392766	-3.40497494	-3.31457186	-0.378131777	-0.371541269E-2	-0.101277466E-15	-2.73468184	-2.98686218	-3.55956817	-2.82604146	-0.367676139	-0.102235973E-1	-0.153476504E-14	0.00000000	0.288834963E-1	0.266954731E-1	-0.926788077E-1	-0.146494940	-0.106098004	-0.569177009E-1	0.00000000	0.207913592E-1	0.186753925E-1	-0.803182200E-1	-0.878928378E-1	-0.599227734E-1	-0.318040587E-1
   45.0000	6.42263651	7.06257772	-4.84569597	11.1794872	0.455084771	0.766582906	0.937395990	-0.282251713E-3	-0.117781212E-5	0.995939374	0.996017694	0.552927268E-4	-0.116912988E-4	-0.900266618E-1	-0.891555697E-1	1122.46155	1185.20190	991.776184	996.744141	98.6903305	93.7420502	-2.06312966	-2.50061393	-3.36983132	-3.34326220	-0.387895763	-0.369970733E-2	-0.965267629E-16	-2.73172665	-2.97837973	-3.53302288	-2.83440638	-0.381914079	-0.109104589E-1	-0.203978472E-14	0.00000000	0.288485754E-1	0.276404712E-1	-0.938795432E-1	-0.150627583	-0.109556958	-0.587810166E-1	0.00000000	0.202356894E-1	0.179744586E-1	-0.770946443E-1	-0.867292136E-1	-0.587611683E-1	-0.311510433E-1
   48.0000	6.29354429	6.87023163	-1.37109494	11.3354445	0.413991868	0.786170185	0.959192812	-0.266520045E-3	-0.111216525E-5	0.995928824	0.995993853	-0.200820596E-4	-0.304658806E-5	-0.901432112E-1	-0.894215927E-1	1122.50415	1185.36426	987.941345	995.157654	99.0811386	95.3067780	-2.08266020	-2.51918077	-3.38056874	-3.30786109	-0.375136256	-0.363897672E-2	-0.769774609E-16	-2.73217297	-2.98430896	-3.56105185	-2.88638449	-0.403684795	-0.118774511E-1	-0.248816436E-14	0.00000000	0.289081689E-1	0.270110816E-1	-0.927245691E-1	-0.146508813	-0.106224217	-0.569910705E-1	0.00000000	0.207728427E-1	0.192343891E-1	-0.805151835E-1	-0.930996388E-1	-0.638850704E-1	-0.338726379E-1
